   2   2   0   0
  0.5186699E+02  0.2447261E-09  0.2447261E-09  0.2000000E-08  0.5000000E-15
  1.000000000000000E-004
  CAR 
 unknown system                          
     14.46338560    -24.17411429  301     -2.93645975      1.00000000
    -24.174  0.0000E+00  0.0000E+00
    -24.045  0.0000E+00  0.0000E+00
    -23.917  0.0000E+00  0.0000E+00
    -23.788  0.0000E+00  0.0000E+00
    -23.659  0.0000E+00  0.0000E+00
    -23.530  0.0000E+00  0.0000E+00
    -23.401  0.0000E+00  0.0000E+00
    -23.273  0.0000E+00  0.0000E+00
    -23.144  0.0000E+00  0.0000E+00
    -23.015  0.0000E+00  0.0000E+00
    -22.886  0.1213E-11  0.1562E-12
    -22.757  0.5431E-07  0.6995E-08
    -22.629  0.1008E-03  0.1299E-04
    -22.500  0.1005E-01  0.1307E-02
    -22.371  0.1251E+00  0.1742E-01
    -22.242  0.2900E+00  0.5477E-01
    -22.113  0.2545E+00  0.8755E-01
    -21.985  0.4290E+00  0.1428E+00
    -21.856  0.1978E+00  0.1683E+00
    -21.727  0.2143E+00  0.1959E+00
    -21.598  0.5307E+00  0.2642E+00
    -21.469  0.2958E+00  0.3023E+00
    -21.341  0.1944E+00  0.3274E+00
    -21.212  0.1123E+00  0.3418E+00
    -21.083  0.5279E+00  0.4098E+00
    -20.954  0.5454E+00  0.4801E+00
    -20.826  0.1155E+00  0.4949E+00
    -20.697  0.2563E+00  0.5279E+00
    -20.568  0.1295E+00  0.5446E+00
    -20.439  0.3568E+00  0.5906E+00
    -20.310  0.5078E+00  0.6560E+00
    -20.182  0.5457E+00  0.7262E+00
    -20.053  0.2213E+00  0.7547E+00
    -19.924  0.3036E-01  0.7587E+00
    -19.795  0.2260E+00  0.7878E+00
    -19.666  0.2568E+00  0.8208E+00
    -19.538  0.5427E+00  0.8907E+00
    -19.409  0.5423E+00  0.9606E+00
    -19.280  0.1796E+00  0.9837E+00
    -19.151  0.5227E+00  0.1051E+01
    -19.022  0.1861E+00  0.1075E+01
    -18.894  0.5671E-02  0.1076E+01
    -18.765  0.8465E-01  0.1087E+01
    -18.636  0.5316E+00  0.1155E+01
    -18.507  0.6193E+00  0.1235E+01
    -18.378  0.5455E+00  0.1305E+01
    -18.250  0.2774E+00  0.1341E+01
    -18.121  0.6557E-01  0.1349E+01
    -17.992  0.4622E+00  0.1409E+01
    -17.863  0.2977E+00  0.1447E+01
    -17.735  0.1449E-01  0.1449E+01
    -17.606  0.8270E-01  0.1460E+01
    -17.477  0.6748E+00  0.1547E+01
    -17.348  0.8057E+00  0.1650E+01
    -17.219  0.3412E+00  0.1694E+01
    -17.091  0.5225E+00  0.1762E+01
    -16.962  0.3013E+00  0.1800E+01
    -16.833  0.1613E+00  0.1821E+01
    -16.704  0.8296E-02  0.1822E+01
    -16.575  0.1542E-01  0.1824E+01
    -16.447  0.2988E+00  0.1863E+01
    -16.318  0.7174E+00  0.1955E+01
    -16.189  0.3489E+00  0.2000E+01
    -16.060  0.2439E+00  0.2031E+01
    -15.931  0.3761E-01  0.2036E+01
    -15.803  0.1453E+00  0.2055E+01
    -15.674  0.3594E+00  0.2101E+01
    -15.545  0.5575E+00  0.2173E+01
    -15.416  0.6169E+00  0.2253E+01
    -15.287  0.2257E+00  0.2282E+01
    -15.159  0.2551E-01  0.2285E+01
    -15.030  0.1927E+00  0.2310E+01
    -14.901  0.8838E+00  0.2424E+01
    -14.772  0.5394E+00  0.2493E+01
    -14.644  0.7449E-01  0.2503E+01
    -14.515  0.4192E+00  0.2557E+01
    -14.386  0.3558E+00  0.2602E+01
    -14.257  0.1576E+00  0.2623E+01
    -14.128  0.2831E+00  0.2659E+01
    -14.000  0.4705E+00  0.2720E+01
    -13.871  0.4238E+00  0.2774E+01
    -13.742  0.3123E+00  0.2815E+01
    -13.613  0.1443E+00  0.2833E+01
    -13.484  0.3473E-01  0.2838E+01
    -13.356  0.3206E+00  0.2879E+01
    -13.227  0.4566E+00  0.2938E+01
    -13.098  0.3974E+00  0.2989E+01
    -12.969  0.9667E+00  0.3113E+01
    -12.840  0.3175E+00  0.3154E+01
    -12.712  0.1111E-01  0.3156E+01
    -12.583  0.9878E-01  0.3168E+01
    -12.454  0.6201E+00  0.3248E+01
    -12.325  0.7746E+00  0.3348E+01
    -12.196  0.1588E+00  0.3369E+01
    -12.068  0.2893E-02  0.3369E+01
    -11.939  0.3935E-01  0.3374E+01
    -11.810  0.4474E+00  0.3432E+01
    -11.681  0.1003E+01  0.3561E+01
    -11.553  0.8336E+00  0.3668E+01
    -11.424  0.1877E+00  0.3692E+01
    -11.295  0.3913E+00  0.3743E+01
    -11.166  0.3828E+00  0.3792E+01
    -11.037  0.2786E-01  0.3796E+01
    -10.909  0.5024E-01  0.3802E+01
    -10.780  0.6109E+00  0.3881E+01
    -10.651  0.9613E+00  0.4005E+01
    -10.522  0.9440E+00  0.4126E+01
    -10.393  0.8829E+00  0.4240E+01
    -10.265  0.7945E+00  0.4342E+01
    -10.136  0.3362E+00  0.4385E+01
    -10.007  0.2855E+00  0.4422E+01
     -9.878  0.1245E+01  0.4583E+01
     -9.749  0.1165E+01  0.4733E+01
     -9.621  0.8830E+00  0.4846E+01
     -9.492  0.6402E+00  0.4929E+01
     -9.363  0.8743E+00  0.5041E+01
     -9.234  0.1533E+01  0.5239E+01
     -9.105  0.1195E+01  0.5393E+01
     -8.977  0.7974E+00  0.5496E+01
     -8.848  0.4675E+00  0.5556E+01
     -8.719  0.9507E+00  0.5678E+01
     -8.590  0.3468E+00  0.5723E+01
     -8.462  0.1418E+00  0.5741E+01
     -8.333  0.1110E+01  0.5884E+01
     -8.204  0.1253E+01  0.6045E+01
     -8.075  0.1325E+01  0.6216E+01
     -7.946  0.3188E+00  0.6257E+01
     -7.818  0.1311E-01  0.6259E+01
     -7.689  0.1575E+00  0.6279E+01
     -7.560  0.3735E+00  0.6327E+01
     -7.431  0.9604E+00  0.6451E+01
     -7.302  0.1313E+01  0.6620E+01
     -7.174  0.5373E+00  0.6689E+01
     -7.045  0.4836E+00  0.6751E+01
     -6.916  0.6221E+00  0.6832E+01
     -6.787  0.2703E+00  0.6866E+01
     -6.658  0.4039E+00  0.6918E+01
     -6.530  0.3731E+00  0.6966E+01
     -6.401  0.4850E+00  0.7029E+01
     -6.272  0.8117E+00  0.7133E+01
     -6.143  0.9302E+00  0.7253E+01
     -6.014  0.5579E+00  0.7325E+01
     -5.886  0.3608E+00  0.7372E+01
     -5.757  0.5181E+00  0.7438E+01
     -5.628  0.9934E-01  0.7451E+01
     -5.499  0.2082E+00  0.7478E+01
     -5.371  0.1908E+00  0.7502E+01
     -5.242  0.3267E+00  0.7545E+01
     -5.113  0.1339E+01  0.7717E+01
     -4.984  0.7799E+00  0.7817E+01
     -4.855  0.3698E-01  0.7822E+01
     -4.727  0.1321E-03  0.7822E+01
     -4.598  0.1132E-01  0.7824E+01
     -4.469  0.1794E+00  0.7847E+01
     -4.340  0.2057E+00  0.7873E+01
     -4.211  0.2408E-01  0.7876E+01
     -4.083  0.2235E+00  0.7905E+01
     -3.954  0.5079E+00  0.7971E+01
     -3.825  0.8936E-01  0.7982E+01
     -3.696  0.9375E-03  0.7982E+01
     -3.567  0.4518E-06  0.7982E+01
     -3.439  0.9048E-11  0.7982E+01
     -3.310  0.1776E-07  0.7982E+01
     -3.181  0.7473E-04  0.7982E+01
     -3.052  0.1393E-01  0.7984E+01
     -2.923  0.1441E+00  0.8003E+01
     -2.795  0.1117E+00  0.8017E+01
     -2.666  0.6191E-02  0.8018E+01
     -2.537  0.1796E-04  0.8018E+01
     -2.408  0.2246E-08  0.8018E+01
     -2.280  0.6183E-08  0.8018E+01
     -2.151  0.5074E-04  0.8018E+01
     -2.022  0.1793E-01  0.8020E+01
     -1.893  0.3311E+00  0.8063E+01
     -1.764  0.4532E+00  0.8121E+01
     -1.636  0.2482E+00  0.8153E+01
     -1.507  0.1820E+00  0.8177E+01
     -1.378  0.9658E-01  0.8189E+01
     -1.249  0.4296E+00  0.8244E+01
     -1.120  0.7171E+00  0.8337E+01
     -0.992  0.4330E+00  0.8392E+01
     -0.863  0.5038E+00  0.8457E+01
     -0.734  0.4845E+00  0.8520E+01
     -0.605  0.3994E+00  0.8571E+01
     -0.476  0.5454E+00  0.8641E+01
     -0.348  0.1255E+00  0.8658E+01
     -0.219  0.1860E-02  0.8658E+01
     -0.090  0.5252E-02  0.8658E+01
      0.039  0.2040E+00  0.8685E+01
      0.168  0.5897E+00  0.8761E+01
      0.296  0.3711E+00  0.8808E+01
      0.425  0.1775E+00  0.8831E+01
      0.554  0.6752E+00  0.8918E+01
      0.683  0.5095E+00  0.8984E+01
      0.811  0.1811E+00  0.9007E+01
      0.940  0.3897E+00  0.9057E+01
      1.069  0.6986E+00  0.9147E+01
      1.198  0.3890E+00  0.9198E+01
      1.327  0.1413E+00  0.9216E+01
      1.455  0.6357E+00  0.9298E+01
      1.584  0.5098E+00  0.9363E+01
      1.713  0.6038E+00  0.9441E+01
      1.842  0.1108E+01  0.9584E+01
      1.971  0.8467E+00  0.9693E+01
      2.099  0.9443E+00  0.9814E+01
      2.228  0.9324E+00  0.9935E+01
      2.357  0.1116E+01  0.1008E+02
      2.486  0.6954E+00  0.1017E+02
      2.615  0.2574E+00  0.1020E+02
      2.743  0.1057E+01  0.1034E+02
      2.872  0.1182E+01  0.1049E+02
      3.001  0.7551E+00  0.1059E+02
      3.130  0.1372E+01  0.1076E+02
      3.259  0.1615E+01  0.1097E+02
      3.387  0.1070E+01  0.1111E+02
      3.516  0.1594E+01  0.1131E+02
      3.645  0.1743E+01  0.1154E+02
      3.774  0.1099E+01  0.1168E+02
      3.902  0.2951E+00  0.1172E+02
      4.031  0.1050E+01  0.1185E+02
      4.160  0.1577E+01  0.1206E+02
      4.289  0.8441E+00  0.1217E+02
      4.418  0.1525E+01  0.1236E+02
      4.546  0.1993E+01  0.1262E+02
      4.675  0.8362E+00  0.1273E+02
      4.804  0.1882E+01  0.1297E+02
      4.933  0.2446E+01  0.1328E+02
      5.062  0.1705E+01  0.1350E+02
      5.190  0.1437E+01  0.1369E+02
      5.319  0.1932E+01  0.1394E+02
      5.448  0.2767E+01  0.1429E+02
      5.577  0.2748E+01  0.1465E+02
      5.706  0.2929E+01  0.1502E+02
      5.834  0.3654E+01  0.1550E+02
      5.963  0.3062E+01  0.1589E+02
      6.092  0.1154E+01  0.1604E+02
      6.221  0.8037E+00  0.1614E+02
      6.350  0.1274E+01  0.1631E+02
      6.478  0.2185E+01  0.1659E+02
      6.607  0.3244E+01  0.1700E+02
      6.736  0.2690E+01  0.1735E+02
      6.865  0.1335E+01  0.1752E+02
      6.993  0.1068E+01  0.1766E+02
      7.122  0.1514E+01  0.1786E+02
      7.251  0.2013E+01  0.1812E+02
      7.380  0.1454E+01  0.1830E+02
      7.509  0.1726E+01  0.1852E+02
      7.637  0.2057E+01  0.1879E+02
      7.766  0.2005E+01  0.1905E+02
      7.895  0.1923E+01  0.1930E+02
      8.024  0.1293E+01  0.1946E+02
      8.153  0.1314E+01  0.1963E+02
      8.281  0.2231E+01  0.1992E+02
      8.410  0.1847E+01  0.2016E+02
      8.539  0.1991E+01  0.2041E+02
      8.668  0.1355E+01  0.2059E+02
      8.797  0.1237E+01  0.2075E+02
      8.925  0.1853E+01  0.2099E+02
      9.054  0.1484E+01  0.2118E+02
      9.183  0.1459E+01  0.2136E+02
      9.312  0.1434E+01  0.2155E+02
      9.441  0.1780E+01  0.2178E+02
      9.569  0.9896E+00  0.2191E+02
      9.698  0.1216E+01  0.2206E+02
      9.827  0.2162E+01  0.2234E+02
      9.956  0.1432E+01  0.2253E+02
     10.084  0.9997E+00  0.2265E+02
     10.213  0.1702E+01  0.2287E+02
     10.342  0.1698E+01  0.2309E+02
     10.471  0.1091E+01  0.2323E+02
     10.600  0.1075E+01  0.2337E+02
     10.728  0.1939E+01  0.2362E+02
     10.857  0.8005E+00  0.2372E+02
     10.986  0.2134E+00  0.2375E+02
     11.115  0.5268E+00  0.2382E+02
     11.244  0.1581E+00  0.2384E+02
     11.372  0.3078E-02  0.2384E+02
     11.501  0.3523E-03  0.2384E+02
     11.630  0.5322E-01  0.2385E+02
     11.759  0.4597E+00  0.2391E+02
     11.888  0.3011E+00  0.2394E+02
     12.016  0.1384E-01  0.2395E+02
     12.145  0.1897E-02  0.2395E+02
     12.274  0.6947E-01  0.2396E+02
     12.403  0.1715E+00  0.2398E+02
     12.532  0.3375E-01  0.2398E+02
     12.660  0.3453E-01  0.2399E+02
     12.789  0.8598E-01  0.2400E+02
     12.918  0.1681E-01  0.2400E+02
     13.047  0.1985E-03  0.2400E+02
     13.175  0.1085E-06  0.2400E+02
     13.304  0.2425E-11  0.2400E+02
     13.433  0.0000E+00  0.2400E+02
     13.562  0.0000E+00  0.2400E+02
     13.691  0.0000E+00  0.2400E+02
     13.819  0.0000E+00  0.2400E+02
     13.948  0.0000E+00  0.2400E+02
     14.077  0.0000E+00  0.2400E+02
     14.206  0.0000E+00  0.2400E+02
     14.335  0.0000E+00  0.2400E+02
     14.463  0.0000E+00  0.2400E+02
