    2    2    1    1
  0.5186699E+02  0.2447260E-09  0.2447260E-09  0.2000000E-08  0.5000000E-15
  1.000000000000000E-004
  CAR 
 unknown system                          
      8     27     12
 
  0.0000000E+00  0.0000000E+00  0.0000000E+00  0.4444444E-02
    1      -22.417864   1.000000
    2      -10.731002   1.000000
    3       -5.966130   1.000000
    4       -5.966130   1.000000
    5        0.402979   0.000000
    6        1.371823   0.000000
    7        1.718786   0.000000
    8        2.616299   0.000000
    9        3.051150   0.000000
   10        4.708667   0.000000
   11        5.330613   0.000000
   12        5.470531   0.000000
 
  0.6666667E-01 -0.6938894E-17  0.0000000E+00  0.2666667E-01
    1      -22.312083   1.000000
    2      -10.602936   1.000000
    3       -6.382930   1.000000
    4       -6.193091   1.000000
    5        0.546504   0.000000
    6        1.517976   0.000000
    7        1.867169   0.000000
    8        2.763091   0.000000
    9        3.197665   0.000000
   10        4.853917   0.000000
   11        5.436100   0.000000
   12        5.566102   0.000000
 
  0.1333333E+00  0.1387779E-16  0.0000000E+00  0.2666667E-01
    1      -21.995486   1.000000
    2      -10.220835   1.000000
    3       -7.495566   1.000000
    4       -6.767612   1.000000
    5        0.977281   0.000000
    6        1.955809   0.000000
    7        2.312354   0.000000
    8        3.202996   0.000000
    9        3.637269   0.000000
   10        5.288463   0.000000
   11        5.541945   0.000000
   12        5.946343   0.000000
 
  0.2000000E+00  0.1387779E-16  0.0000000E+00  0.2666667E-01
    1      -21.470319   1.000000
    2       -9.591636   1.000000
    3       -9.030479   1.000000
    4       -7.484986   1.000000
    5        1.694796   0.000000
    6        2.682049   0.000000
    7        3.054302   0.000000
    8        3.932766   0.000000
    9        4.367966   0.000000
   10        5.468417   0.000000
   11        5.735867   0.000000
   12        6.042100   0.000000
 
  0.2666667E+00 -0.2775558E-16  0.0000000E+00  0.2666667E-01
    1      -20.740510   1.000000
    2      -10.756282   1.000000
    3       -8.730310   1.000000
    4       -8.182252   1.000000
    5        2.696457   0.000000
    6        3.610183   0.000000
    7        4.027932   0.000000
    8        4.092467   0.000000
    9        4.978983   0.000000
   10        5.211799   0.000000
   11        5.458889   0.000000
   12        7.029315   0.000000
 
  0.3333333E+00  0.0000000E+00  0.0000000E+00  0.2666667E-01
    1      -19.812961   1.000000
    2      -12.521249   1.000000
    3       -8.761888   1.000000
    4       -7.669650   1.000000
    5        2.023390   0.000000
    6        3.972084   0.000000
    7        5.028950   0.000000
    8        5.040879   0.000000
    9        5.434406   0.000000
   10        6.282875   0.000000
   11        6.733108   0.000000
   12        8.314735   0.000000
 
  0.4000000E+00  0.2775558E-16  0.0000000E+00  0.2666667E-01
    1      -18.700965   1.000000
    2      -14.228371   1.000000
    3       -9.170584   1.000000
    4       -6.495821   1.000000
    5        0.232407   0.000000
    6        4.825074   0.000000
    7        5.577406   0.000000
    8        6.602961   0.000000
    9        7.062489   0.000000
   10        7.877373   0.000000
   11        8.341159   0.000000
   12        9.850532   0.000000
 
  0.4666667E+00 -0.5551115E-16  0.0000000E+00  0.2666667E-01
    1      -17.460292   1.000000
    2      -15.776641   1.000000
    3       -9.380778   1.000000
    4       -5.507210   1.000000
    5       -1.085075   0.000000
    6        4.746758   0.000000
    7        7.379640   0.000000
    8        8.424508   0.000000
    9        8.989358   0.000000
   10        9.420280   0.000000
   11        9.718798   0.000000
   12       10.235961   0.000000
 
  0.6666667E-01  0.6666667E-01  0.0000000E+00  0.2666667E-01
    1      -22.100927   1.000000
    2      -10.347840   1.000000
    3       -7.094702   1.000000
    4       -6.647308   1.000000
    5        0.833764   0.000000
    6        1.810005   0.000000
    7        2.163967   0.000000
    8        3.056478   0.000000
    9        3.490889   0.000000
   10        5.143994   0.000000
   11        5.630553   0.000000
   12        5.836717   0.000000
 
  0.1333333E+00  0.6666667E-01  0.0000000E+00  0.5333333E-01
    1      -21.680028   1.000000
    2       -9.841926   1.000000
    3       -8.327958   1.000000
    4       -7.385316   1.000000
    5        1.408372   0.000000
    6        2.392626   0.000000
    7        2.757608   0.000000
    8        3.642155   0.000000
    9        4.077379   0.000000
   10        5.720299   0.000000
   11        5.833866   0.000000
   12        6.384644   0.000000
 
  0.2000000E+00  0.6666667E-01  0.0000000E+00  0.5333333E-01
    1      -21.052565   1.000000
    2       -9.900699   1.000000
    3       -9.095510   1.000000
    4       -8.151229   1.000000
    5        2.268891   0.000000
    6        3.257367   0.000000
    7        3.647956   0.000000
    8        4.491451   0.000000
    9        4.770375   0.000000
   10        4.952828   0.000000
   11        5.794873   0.000000
   12        6.591656   0.000000
 
  0.2666667E+00  0.6666667E-01  0.0000000E+00  0.5333333E-01
    1      -20.223935   1.000000
    2      -11.616669   1.000000
    3       -8.818901   1.000000
    4       -8.130251   1.000000
    5        2.886344   0.000000
    6        3.411308   0.000000
    7        4.447554   0.000000
    8        4.833867   0.000000
    9        5.584187   0.000000
   10        5.694874   0.000000
   11        6.157530   0.000000
   12        7.734690   0.000000
 
  0.3333333E+00  0.6666667E-01  0.0000000E+00  0.5333333E-01
    1      -19.203513   1.000000
    2      -13.338909   1.000000
    3       -9.326482   1.000000
    4       -6.996784   1.000000
    5        1.059136   0.000000
    6        4.814115   0.000000
    7        5.417220   0.000000
    8        5.875611   0.000000
    9        6.321696   0.000000
   10        7.144658   0.000000
   11        7.610389   0.000000
   12        9.135489   0.000000
 
  0.4000000E+00  0.6666667E-01  0.0000000E+00  0.5333333E-01
    1      -18.014520   1.000000
    2      -14.972784   1.000000
    3       -9.641524   1.000000
    4       -5.847966   1.000000
    5       -0.548634   0.000000
    6        5.239067   0.000000
    7        6.546449   0.000000
    8        7.564470   0.000000
    9        8.100090   0.000000
   10        8.860047   0.000000
   11        9.361319   0.000000
   12       10.640651   0.000000
 
  0.4666667E+00  0.6666667E-01  0.0000000E+00  0.2666667E-01
    1      -16.978283   1.000000
    2      -16.160986   1.000000
    3       -9.748150   1.000000
    4       -5.237152   1.000000
    5       -1.318941   0.000000
    6        5.195847   0.000000
    7        8.420499   0.000000
    8        8.520349   0.000000
    9        9.213248   0.000000
   10        9.692321   0.000000
   11       10.170811   0.000000
   12       10.176674   0.000000
 
  0.1333333E+00  0.1333333E+00  0.0000000E+00  0.2666667E-01
    1      -21.156930   1.000000
    2       -9.407556   1.000000
    3       -9.218051   1.000000
    4       -8.364910   1.000000
    5        2.126622   0.000000
    6        3.118107   0.000000
    7        3.499764   0.000000
    8        4.372438   0.000000
    9        4.811624   0.000000
   10        5.039796   0.000000
   11        6.439486   0.000000
   12        6.484331   0.000000
 
  0.2000000E+00  0.1333333E+00  0.0000000E+00  0.5333333E-01
    1      -20.430639   1.000000
    2      -10.793943   1.000000
    3       -9.278629   1.000000
    4       -8.363877   1.000000
    5        3.129213   0.000000
    6        3.455015   0.000000
    7        4.134791   0.000000
    8        4.538589   0.000000
    9        5.391443   0.000000
   10        5.835926   0.000000
   11        6.801057   0.000000
   12        7.431773   0.000000
 
  0.2666667E+00  0.1333333E+00  0.0000000E+00  0.5333333E-01
    1      -19.508820   1.000000
    2      -12.389913   1.000000
    3       -9.951502   1.000000
    4       -7.310488   1.000000
    5        1.752594   0.000000
    6        4.410522   0.000000
    7        5.416018   0.000000
    8        5.873108   0.000000
    9        6.690231   0.000000
   10        6.693197   0.000000
   11        7.183807   0.000000
   12        8.670141   0.000000
 
  0.3333333E+00  0.1333333E+00  0.0000000E+00  0.5333333E-01
    1      -18.406250   1.000000
    2      -14.013660   1.000000
    3      -10.395030   1.000000
    4       -6.137303   1.000000
    5        0.086155   0.000000
    6        5.950337   0.000000
    7        6.565937   0.000000
    8        6.939459   0.000000
    9        7.507453   0.000000
   10        8.242891   0.000000
   11        8.777202   0.000000
   12       10.001288   0.000000
 
  0.4000000E+00  0.1333333E+00  0.0000000E+00  0.5333333E-01
    1      -17.182575   1.000000
    2      -15.515726   1.000000
    3      -10.616808   1.000000
    4       -5.127383   1.000000
    5       -1.189525   0.000000
    6        6.445309   0.000000
    7        7.775921   0.000000
    8        8.518357   0.000000
    9        9.432007   0.000000
   10        9.736242   0.000000
   11        9.827282   0.000000
   12       10.661414   0.000000
 
  0.2000000E+00  0.2000000E+00  0.0000000E+00  0.2666667E-01
    1      -19.611173   1.000000
    2      -11.781580   1.000000
    3      -10.476869   1.000000
    4       -7.417052   1.000000
    5        2.039526   0.000000
    6        4.270337   0.000000
    7        5.253808   0.000000
    8        5.725725   0.000000
    9        6.534011   0.000000
   10        7.009296   0.000000
   11        7.986742   0.000000
   12        8.504994   0.000000
 
  0.2666667E+00  0.2000000E+00  0.0000000E+00  0.5333333E-01
    1      -18.605904   1.000000
    2      -13.070771   1.000000
    3      -11.295713   1.000000
    4       -6.298336   1.000000
    5        0.537846   0.000000
    6        5.682303   0.000000
    7        6.593881   0.000000
    8        7.208386   0.000000
    9        7.912967   0.000000
   10        8.259314   0.000000
   11        8.514949   0.000000
   12        9.593588   0.000000
 
  0.3333333E+00  0.2000000E+00  0.0000000E+00  0.5333333E-01
    1      -17.442632   1.000000
    2      -14.523852   1.000000
    3      -11.711204   1.000000
    4       -5.132139   1.000000
    5       -0.882358   0.000000
    6        7.338182   0.000000
    7        7.856692   0.000000
    8        8.196085   0.000000
    9        8.988112   0.000000
   10        9.330946   0.000000
   11       10.218925   0.000000
   12       10.373658   0.000000
 
  0.4000000E+00  0.2000000E+00  0.0000000E+00  0.2666667E-01
    1      -16.446476   1.000000
    2      -15.632677   1.000000
    3      -11.840197   1.000000
    4       -4.462024   1.000000
    5       -1.642202   0.000000
    6        8.128331   0.000000
    7        8.280985   0.000000
    8        9.103747   0.000000
    9        9.267801   0.000000
   10       10.570339   0.000000
   11       11.047873   0.000000
   12       11.059524   0.000000
 
  0.2666667E+00  0.2666667E+00  0.0000000E+00  0.2666667E-01
    1      -17.535791   1.000000
    2      -13.817873   1.000000
    3      -12.462323   1.000000
    4       -5.148220   1.000000
    5       -0.723005   0.000000
    6        7.202548   0.000000
    7        7.581618   0.000000
    8        8.837256   0.000000
    9        9.139548   0.000000
   10        9.771597   0.000000
   11       10.114340   0.000000
   12       10.211177   0.000000
 
  0.3333333E+00  0.2666667E+00  0.0000000E+00  0.5333333E-01
    1      -16.366915   1.000000
    2      -14.893885   1.000000
    3      -13.002421   1.000000
    4       -4.040917   1.000000
    5       -1.879142   0.000000
    6        7.700116   0.000000
    7        8.887255   0.000000
    8        9.824534   0.000000
    9       10.355447   0.000000
   10       10.634833   0.000000
   11       10.760847   0.000000
   12       11.737208   0.000000
 
  0.3333333E+00  0.3333333E+00  0.0000000E+00  0.8888889E-02
    1      -15.387788   1.000000
    2      -15.387788   1.000000
    3      -13.693206   1.000000
    4       -2.936460   0.500000
    5       -2.936460   0.500000
    6        7.464067   0.000000
    7       10.079187   0.000000
    8       10.079187   0.000000
    9       10.511208   0.000000
   10       12.319763   0.000000
   11       12.319769   0.000000
   12       12.707136   0.000000
