       N       E                     dE             d eps       ncg     rms          rms(c)
DAV:   1     0.421581685412E+02    0.42158E+02   -0.35709E+03   648   0.473E+02
DAV:   2    -0.191114103019E+02   -0.61270E+02   -0.53717E+02   792   0.971E+01
DAV:   3    -0.217005614101E+02   -0.25892E+01   -0.25882E+01   984   0.288E+01
DAV:   4    -0.217134570236E+02   -0.12896E-01   -0.12896E-01   960   0.212E+00
DAV:   5    -0.217134699133E+02   -0.12890E-04   -0.12890E-04   948   0.697E-02    0.666E+00
DAV:   6    -0.205910485215E+02    0.11224E+01   -0.11645E+00   792   0.510E+00    0.380E+00
DAV:   7    -0.201840156409E+02    0.40703E+00   -0.14069E+00   876   0.549E+00    0.963E-01
DAV:   8    -0.201749165126E+02    0.90991E-02   -0.15413E-02   840   0.779E-01    0.120E-01
DAV:   9    -0.201738300953E+02    0.10864E-02   -0.72305E-04   900   0.123E-01    0.861E-02
DAV:  10    -0.201712418075E+02    0.25883E-02   -0.51094E-03   924   0.238E-01    0.735E-02
DAV:  11    -0.201716544818E+02   -0.41267E-03   -0.48952E-05   780   0.300E-02    0.307E-02
DAV:  12    -0.201727172487E+02   -0.10628E-02   -0.24107E-04   744   0.573E-02    0.247E-02
DAV:  13    -0.201734174332E+02   -0.70018E-03   -0.11037E-04   720   0.267E-02    0.526E-03
DAV:  14    -0.201735701110E+02   -0.15268E-03   -0.11481E-05   768   0.967E-03    0.387E-03
DAV:  15    -0.201736511062E+02   -0.80995E-04   -0.75655E-06   696   0.683E-03    0.975E-04
DAV:  16    -0.201736571022E+02   -0.59960E-05   -0.95489E-08   732   0.105E-03    0.183E-03
DAV:  17    -0.201736616893E+02   -0.45871E-05   -0.14803E-07   708   0.984E-04    0.322E-04
DAV:  18    -0.201736647166E+02   -0.30273E-05   -0.18902E-08   744   0.424E-04    0.485E-04
DAV:  19    -0.201736655980E+02   -0.88137E-06   -0.74834E-09   720   0.288E-04    0.112E-04
DAV:  20    -0.201736658980E+02   -0.30001E-06   -0.23536E-09   720   0.135E-04    0.122E-05
DAV:  21    -0.201736659150E+02   -0.16989E-07   -0.38123E-11   720   0.239E-05    0.604E-06
DAV:  22    -0.201736659220E+02   -0.70730E-08   -0.29376E-11   744   0.214E-05
   1 F= -.20173666E+02 E0= -.20173164E+02  d E =-.100300E-02
