   4   4   0   0
  0.8625897E+01  0.2447542E-09  0.2447542E-09  0.6650792E-09  0.5000000E-15
  1.000000000000000E-004
  CAR 
 unknown system                          
     21.90034663    -16.60048662  301      4.74828738      1.00000000
    -16.600  0.0000E+00  0.0000E+00
    -16.472  0.0000E+00  0.0000E+00
    -16.344  0.0000E+00  0.0000E+00
    -16.215  0.0000E+00  0.0000E+00
    -16.087  0.0000E+00  0.0000E+00
    -15.959  0.0000E+00  0.0000E+00
    -15.830  0.0000E+00  0.0000E+00
    -15.702  0.0000E+00  0.0000E+00
    -15.574  0.0000E+00  0.0000E+00
    -15.445  0.0000E+00  0.0000E+00
    -15.317  0.4755E-12  0.6103E-13
    -15.189  0.1985E-07  0.2547E-08
    -15.060  0.3581E-04  0.4598E-05
    -14.932  0.3886E-02  0.5033E-03
    -14.804  0.6192E-01  0.8450E-02
    -14.675  0.2459E+00  0.4001E-01
    -14.547  0.3552E+00  0.8560E-01
    -14.419  0.6224E+00  0.1655E+00
    -14.290  0.5959E+00  0.2420E+00
    -14.162  0.5369E+00  0.3109E+00
    -14.034  0.6748E+00  0.3975E+00
    -13.905  0.6001E+00  0.4745E+00
    -13.777  0.7471E+00  0.5703E+00
    -13.649  0.4527E+00  0.6284E+00
    -13.520  0.4977E+00  0.6923E+00
    -13.392  0.7432E+00  0.7877E+00
    -13.264  0.7646E+00  0.8858E+00
    -13.135  0.7197E+00  0.9782E+00
    -13.007  0.4092E+00  0.1031E+01
    -12.879  0.3821E+00  0.1080E+01
    -12.750  0.6501E+00  0.1163E+01
    -12.622  0.7899E+00  0.1265E+01
    -12.494  0.9863E+00  0.1391E+01
    -12.365  0.6251E+00  0.1471E+01
    -12.237  0.3709E+00  0.1519E+01
    -12.109  0.3060E+00  0.1558E+01
    -11.980  0.5035E+00  0.1623E+01
    -11.852  0.8878E+00  0.1737E+01
    -11.724  0.8704E+00  0.1848E+01
    -11.595  0.8360E+00  0.1956E+01
    -11.467  0.6933E+00  0.2045E+01
    -11.339  0.5682E+00  0.2118E+01
    -11.210  0.2549E+00  0.2150E+01
    -11.082  0.1943E+00  0.2175E+01
    -10.954  0.6928E+00  0.2264E+01
    -10.825  0.1037E+01  0.2397E+01
    -10.697  0.1162E+01  0.2546E+01
    -10.569  0.7259E+00  0.2640E+01
    -10.440  0.4447E+00  0.2697E+01
    -10.312  0.5689E+00  0.2770E+01
    -10.184  0.6324E+00  0.2851E+01
    -10.055  0.3419E+00  0.2895E+01
     -9.927  0.1749E+00  0.2917E+01
     -9.799  0.8402E+00  0.3025E+01
     -9.670  0.1336E+01  0.3196E+01
     -9.542  0.1175E+01  0.3347E+01
     -9.414  0.8578E+00  0.3457E+01
     -9.285  0.8016E+00  0.3560E+01
     -9.157  0.5388E+00  0.3629E+01
     -9.029  0.1157E+00  0.3644E+01
     -8.900  0.1485E-01  0.3646E+01
     -8.772  0.3197E+00  0.3687E+01
     -8.644  0.1089E+01  0.3827E+01
     -8.515  0.9414E+00  0.3948E+01
     -8.387  0.6654E+00  0.4033E+01
     -8.259  0.2860E+00  0.4070E+01
     -8.130  0.1610E+00  0.4090E+01
     -8.002  0.4481E+00  0.4148E+01
     -7.874  0.9545E+00  0.4270E+01
     -7.745  0.1204E+01  0.4425E+01
     -7.617  0.8559E+00  0.4535E+01
     -7.489  0.2523E+00  0.4567E+01
     -7.360  0.1921E+00  0.4592E+01
     -7.232  0.9881E+00  0.4718E+01
     -7.104  0.1557E+01  0.4918E+01
     -6.975  0.6011E+00  0.4995E+01
     -6.847  0.4342E+00  0.5051E+01
     -6.719  0.8356E+00  0.5158E+01
     -6.590  0.4963E+00  0.5222E+01
     -6.462  0.4365E+00  0.5278E+01
     -6.334  0.7063E+00  0.5369E+01
     -6.205  0.9075E+00  0.5485E+01
     -6.077  0.7630E+00  0.5583E+01
     -5.949  0.5155E+00  0.5649E+01
     -5.820  0.1708E+00  0.5671E+01
     -5.692  0.2696E+00  0.5706E+01
     -5.564  0.8165E+00  0.5811E+01
     -5.435  0.7268E+00  0.5904E+01
     -5.307  0.1363E+01  0.6079E+01
     -5.179  0.1508E+01  0.6272E+01
     -5.050  0.2959E+00  0.6310E+01
     -4.922  0.5671E-01  0.6318E+01
     -4.794  0.5398E+00  0.6387E+01
     -4.665  0.1531E+01  0.6583E+01
     -4.537  0.1046E+01  0.6718E+01
     -4.409  0.1547E+00  0.6737E+01
     -4.280  0.1425E-01  0.6739E+01
     -4.152  0.2934E+00  0.6777E+01
     -4.024  0.1397E+01  0.6956E+01
     -3.895  0.2078E+01  0.7223E+01
     -3.767  0.1199E+01  0.7377E+01
     -3.639  0.4564E+00  0.7435E+01
     -3.510  0.1139E+01  0.7581E+01
     -3.382  0.7168E+00  0.7673E+01
     -3.254  0.1533E+00  0.7693E+01
     -3.125  0.6468E+00  0.7776E+01
     -2.997  0.1916E+01  0.8022E+01
     -2.869  0.1657E+01  0.8235E+01
     -2.740  0.1459E+01  0.8422E+01
     -2.612  0.1759E+01  0.8648E+01
     -2.484  0.7825E+00  0.8748E+01
     -2.355  0.5811E+00  0.8823E+01
     -2.227  0.1372E+01  0.8999E+01
     -2.099  0.2162E+01  0.9276E+01
     -1.970  0.1751E+01  0.9501E+01
     -1.842  0.1902E+01  0.9745E+01
     -1.713  0.1115E+01  0.9888E+01
     -1.585  0.2755E+01  0.1024E+02
     -1.457  0.2979E+01  0.1062E+02
     -1.328  0.1503E+01  0.1082E+02
     -1.200  0.9815E+00  0.1094E+02
     -1.072  0.1596E+01  0.1115E+02
     -0.943  0.1949E+01  0.1140E+02
     -0.815  0.1070E+01  0.1154E+02
     -0.687  0.6017E+00  0.1161E+02
     -0.558  0.1768E+01  0.1184E+02
     -0.430  0.2287E+01  0.1213E+02
     -0.302  0.1761E+01  0.1236E+02
     -0.173  0.7510E+00  0.1245E+02
     -0.045  0.9149E+00  0.1257E+02
      0.083  0.7539E+00  0.1267E+02
      0.212  0.8235E+00  0.1277E+02
      0.340  0.2083E+01  0.1304E+02
      0.468  0.1524E+01  0.1324E+02
      0.597  0.7715E+00  0.1334E+02
      0.725  0.1018E+01  0.1347E+02
      0.853  0.9689E+00  0.1359E+02
      0.982  0.1136E+01  0.1374E+02
      1.110  0.1521E+01  0.1393E+02
      1.238  0.1322E+01  0.1410E+02
      1.367  0.8628E+00  0.1421E+02
      1.495  0.9267E+00  0.1433E+02
      1.623  0.1177E+01  0.1448E+02
      1.752  0.6626E+00  0.1457E+02
      1.880  0.8746E+00  0.1468E+02
      2.008  0.1062E+01  0.1482E+02
      2.137  0.7447E+00  0.1491E+02
      2.265  0.1325E+01  0.1508E+02
      2.393  0.1086E+01  0.1522E+02
      2.522  0.5053E+00  0.1529E+02
      2.650  0.4152E+00  0.1534E+02
      2.778  0.5191E+00  0.1541E+02
      2.907  0.8860E+00  0.1552E+02
      3.035  0.7532E+00  0.1562E+02
      3.163  0.4636E+00  0.1568E+02
      3.292  0.3748E+00  0.1572E+02
      3.420  0.6403E+00  0.1581E+02
      3.548  0.3554E+00  0.1585E+02
      3.677  0.4343E-01  0.1586E+02
      3.805  0.4792E-01  0.1586E+02
      3.933  0.3279E+00  0.1591E+02
      4.062  0.2574E+00  0.1594E+02
      4.190  0.2040E+00  0.1597E+02
      4.318  0.5241E-01  0.1597E+02
      4.447  0.5838E-01  0.1598E+02
      4.575  0.2386E-01  0.1598E+02
      4.703  0.7213E-01  0.1599E+02
      4.832  0.1689E+00  0.1601E+02
      4.960  0.3496E-01  0.1602E+02
      5.088  0.2993E-01  0.1602E+02
      5.217  0.5399E-01  0.1603E+02
      5.345  0.7989E-02  0.1603E+02
      5.473  0.2454E-01  0.1603E+02
      5.602  0.2398E+00  0.1606E+02
      5.730  0.4649E+00  0.1612E+02
      5.858  0.1786E+00  0.1615E+02
      5.987  0.3996E+00  0.1620E+02
      6.115  0.6559E+00  0.1628E+02
      6.243  0.8573E+00  0.1639E+02
      6.372  0.9836E+00  0.1652E+02
      6.500  0.5868E+00  0.1659E+02
      6.628  0.7393E+00  0.1669E+02
      6.757  0.1017E+01  0.1682E+02
      6.885  0.9460E+00  0.1694E+02
      7.013  0.9372E+00  0.1706E+02
      7.142  0.5326E+00  0.1713E+02
      7.270  0.4797E+00  0.1719E+02
      7.398  0.6251E+00  0.1727E+02
      7.527  0.6841E+00  0.1736E+02
      7.655  0.5120E+00  0.1742E+02
      7.783  0.3251E+00  0.1747E+02
      7.912  0.2999E+00  0.1750E+02
      8.040  0.6449E+00  0.1759E+02
      8.168  0.5946E+00  0.1766E+02
      8.297  0.5265E+00  0.1773E+02
      8.425  0.6785E+00  0.1782E+02
      8.553  0.7231E+00  0.1791E+02
      8.682  0.3552E+00  0.1796E+02
      8.810  0.1168E+00  0.1797E+02
      8.938  0.1545E+00  0.1799E+02
      9.067  0.5696E+00  0.1806E+02
      9.195  0.5267E+00  0.1813E+02
      9.323  0.6495E+00  0.1822E+02
      9.452  0.4433E+00  0.1827E+02
      9.580  0.5973E+00  0.1835E+02
      9.708  0.6154E+00  0.1843E+02
      9.837  0.3869E+00  0.1848E+02
      9.965  0.5478E+00  0.1855E+02
     10.093  0.4266E+00  0.1860E+02
     10.222  0.4621E+00  0.1866E+02
     10.350  0.7804E+00  0.1876E+02
     10.478  0.6904E+00  0.1885E+02
     10.607  0.1686E+00  0.1887E+02
     10.735  0.2530E+00  0.1890E+02
     10.863  0.8544E+00  0.1901E+02
     10.992  0.7631E+00  0.1911E+02
     11.120  0.7968E+00  0.1921E+02
     11.248  0.4662E+00  0.1927E+02
     11.377  0.8530E+00  0.1938E+02
     11.505  0.8162E+00  0.1949E+02
     11.633  0.4232E+00  0.1954E+02
     11.762  0.1494E+00  0.1956E+02
     11.890  0.2550E+00  0.1959E+02
     12.018  0.2375E+00  0.1963E+02
     12.147  0.4557E+00  0.1968E+02
     12.275  0.8422E+00  0.1979E+02
     12.403  0.1177E+01  0.1994E+02
     12.532  0.1206E+01  0.2010E+02
     12.660  0.1757E+01  0.2032E+02
     12.788  0.1509E+01  0.2052E+02
     12.917  0.1446E+01  0.2070E+02
     13.045  0.1798E+01  0.2093E+02
     13.173  0.2688E+01  0.2128E+02
     13.302  0.3165E+01  0.2168E+02
     13.430  0.3100E+01  0.2208E+02
     13.558  0.2347E+01  0.2238E+02
     13.687  0.2402E+01  0.2269E+02
     13.815  0.1399E+01  0.2287E+02
     13.944  0.1267E+01  0.2303E+02
     14.072  0.1511E+01  0.2323E+02
     14.200  0.2107E+01  0.2350E+02
     14.329  0.2930E+01  0.2387E+02
     14.457  0.2194E+01  0.2416E+02
     14.585  0.1444E+01  0.2434E+02
     14.714  0.1525E+01  0.2454E+02
     14.842  0.1593E+01  0.2474E+02
     14.970  0.1724E+01  0.2496E+02
     15.099  0.1712E+01  0.2518E+02
     15.227  0.1705E+01  0.2540E+02
     15.355  0.1536E+01  0.2560E+02
     15.484  0.1422E+01  0.2578E+02
     15.612  0.1318E+01  0.2595E+02
     15.740  0.1446E+01  0.2614E+02
     15.869  0.1478E+01  0.2632E+02
     15.997  0.1399E+01  0.2650E+02
     16.125  0.1666E+01  0.2672E+02
     16.254  0.2668E+01  0.2706E+02
     16.382  0.1736E+01  0.2728E+02
     16.510  0.7910E+00  0.2738E+02
     16.639  0.1217E+01  0.2754E+02
     16.767  0.1379E+01  0.2772E+02
     16.895  0.1068E+01  0.2785E+02
     17.024  0.1232E+01  0.2801E+02
     17.152  0.1731E+01  0.2824E+02
     17.280  0.1636E+01  0.2845E+02
     17.409  0.7795E+00  0.2855E+02
     17.537  0.6338E+00  0.2863E+02
     17.665  0.1253E+01  0.2879E+02
     17.794  0.1245E+01  0.2895E+02
     17.922  0.8097E+00  0.2905E+02
     18.050  0.1014E+01  0.2918E+02
     18.179  0.1139E+01  0.2933E+02
     18.307  0.5034E+00  0.2939E+02
     18.435  0.1081E+01  0.2953E+02
     18.564  0.6400E+00  0.2961E+02
     18.692  0.2150E+00  0.2964E+02
     18.820  0.2939E+00  0.2968E+02
     18.949  0.7135E+00  0.2977E+02
     19.077  0.6352E+00  0.2985E+02
     19.205  0.1815E+00  0.2987E+02
     19.334  0.1694E+00  0.2990E+02
     19.462  0.3359E+00  0.2994E+02
     19.590  0.6296E-01  0.2995E+02
     19.719  0.7078E-01  0.2996E+02
     19.847  0.5834E-01  0.2996E+02
     19.975  0.5388E-02  0.2996E+02
     20.104  0.6871E-01  0.2997E+02
     20.232  0.1721E+00  0.3000E+02
     20.360  0.3396E-01  0.3000E+02
     20.489  0.4124E-03  0.3000E+02
     20.617  0.2370E-06  0.3000E+02
     20.745  0.5703E-11  0.3000E+02
     20.874  0.0000E+00  0.3000E+02
     21.002  0.0000E+00  0.3000E+02
     21.130  0.0000E+00  0.3000E+02
     21.259  0.0000E+00  0.3000E+02
     21.387  0.0000E+00  0.3000E+02
     21.515  0.0000E+00  0.3000E+02
     21.644  0.0000E+00  0.3000E+02
     21.772  0.0000E+00  0.3000E+02
     21.900  0.0000E+00  0.3000E+02
