    4    4    1    1
  0.8625897E+01  0.2447542E-09  0.2447542E-09  0.6650792E-09  0.5000000E-15
  1.000000000000000E-004
  CAR 
 unknown system                          
     16     54     15
 
  0.0000000E+00  0.0000000E+00  0.0000000E+00  0.1481481E-02
    1      -14.850449   1.000000
    2      -14.510312   1.000000
    3       -4.004756   1.000000
    4       -1.867584   1.000000
    5        1.764060   1.000000
    6        1.764061   1.000000
    7        1.783721   1.000000
    8        1.783722   1.000000
    9        8.643929   0.000000
   10       13.179137   0.000000
   11       13.179137   0.000000
   12       13.236300   0.000000
   13       13.236300   0.000000
   14       15.042910   0.000000
   15       16.279373   0.000000
 
  0.6666667E-01  0.6938894E-17  0.0000000E+00  0.8888889E-02
    1      -14.743559   1.000000
    2      -14.405652   1.000000
    3       -3.873194   1.000000
    4       -1.744869   1.000000
    5        1.341545   1.000000
    6        1.372510   1.000000
    7        1.533331   1.000000
    8        1.560693   1.000000
    9        8.772794   0.000000
   10       13.222521   0.000000
   11       13.301052   0.000000
   12       13.637522   0.000000
   13       13.694305   0.000000
   14       15.139359   0.000000
   15       15.896875   0.000000
 
  0.1333333E+00  0.1387779E-16  0.0000000E+00  0.8888889E-02
    1      -14.423548   1.000000
    2      -14.092315   1.000000
    3       -3.480097   1.000000
    4       -1.379404   1.000000
    5        0.216556   1.000000
    6        0.271940   1.000000
    7        0.953237   1.000000
    8        0.992162   1.000000
    9        9.160920   0.000000
   10       13.232975   0.000000
   11       13.380361   0.000000
   12       14.804783   0.000000
   13       14.898493   0.000000
   14       14.953714   0.000000
   15       15.133995   0.000000
 
  0.2000000E+00  0.0000000E+00  0.0000000E+00  0.8888889E-02
    1      -13.892713   1.000000
    2      -13.572523   1.000000
    3       -2.831100   1.000000
    4       -1.333453   1.000000
    5       -1.248243   1.000000
    6       -0.780088   1.000000
    7        0.231852   1.000000
    8        0.279294   1.000000
    9        9.808518   0.000000
   10       13.089267   0.000000
   11       13.200483   0.000000
   12       13.333229   0.000000
   13       13.716330   0.000000
   14       15.922248   0.000000
   15       16.729466   0.000000
 
  0.2666667E+00  0.0000000E+00  0.0000000E+00  0.8888889E-02
    1      -13.155124   1.000000
    2      -12.850363   1.000000
    3       -3.075343   1.000000
    4       -2.958306   1.000000
    5       -1.937985   1.000000
    6       -0.467989   1.000000
    7       -0.414976   1.000000
    8        0.033330   1.000000
    9       10.709814   0.000000
   10       11.278209   0.000000
   11       12.037630   0.000000
   12       12.840574   0.000000
   13       13.175617   0.000000
   14       16.539071   0.000000
   15       18.910864   0.000000
 
  0.3333333E+00 -0.5551115E-16  0.0000000E+00  0.8888889E-02
    1      -12.217804   1.000000
    2      -11.932342   1.000000
    3       -4.856132   1.000000
    4       -4.707740   1.000000
    5       -1.049210   1.000000
    6       -0.992661   1.000000
    7       -0.825591   1.000000
    8        1.014964   1.000000
    9        9.271952   0.000000
   10       10.263670   0.000000
   11       11.838080   0.000000
   12       12.591372   0.000000
   13       13.001204   0.000000
   14       17.255096   0.000000
   15       19.709179   0.000000
 
  0.4000000E+00  0.0000000E+00  0.0000000E+00  0.8888889E-02
    1      -11.094011   1.000000
    2      -10.832023   1.000000
    3       -6.577849   1.000000
    4       -6.400618   1.000000
    5       -1.458772   1.000000
    6       -1.400261   1.000000
    7        0.444039   1.000000
    8        2.032107   1.000000
    9        7.447286   0.000000
   10        8.555483   0.000000
   11       12.353564   0.000000
   12       12.739334   0.000000
   13       13.370449   0.000000
   14       18.005897   0.000000
   15       18.403962   0.000000
 
  0.4666667E+00  0.0000000E+00  0.0000000E+00  0.8888889E-02
    1       -9.834035   1.000000
    2       -9.613075   1.000000
    3       -8.129251   1.000000
    4       -7.943074   1.000000
    5       -1.669380   1.000000
    6       -1.609901   1.000000
    7        1.646349   1.000000
    8        2.638431   1.000000
    9        6.324099   0.000000
   10        7.211877   0.000000
   11       12.254725   0.000000
   12       12.697148   0.000000
   13       14.917609   0.000000
   14       16.664158   0.000000
   15       18.677630   0.000000
 
  0.6666667E-01  0.6666667E-01  0.0000000E+00  0.8888889E-02
    1      -14.530172   1.000000
    2      -14.196641   1.000000
    3       -3.610843   1.000000
    4       -1.500772   1.000000
    5        0.629474   1.000000
    6        0.659634   1.000000
    7        1.081859   1.000000
    8        1.105197   1.000000
    9        9.031720   0.000000
   10       13.379197   0.000000
   11       13.485858   0.000000
   12       14.350950   0.000000
   13       14.410181   0.000000
   14       15.153183   0.000000
   15       15.353901   0.000000
 
  0.1333333E+00  0.6666667E-01  0.0000000E+00  0.1777778E-01
    1      -14.104693   1.000000
    2      -13.780097   1.000000
    3       -3.089607   1.000000
    4       -1.017979   1.000000
    5       -0.617592   1.000000
    6       -0.559562   1.000000
    7        0.335661   1.000000
    8        0.375215   1.000000
    9        9.551398   0.000000
   10       13.504547   0.000000
   11       13.686143   0.000000
   12       13.865282   0.000000
   13       14.264485   0.000000
   14       15.572562   0.000000
   15       15.655595   0.000000
 
  0.2000000E+00  0.6666667E-01  0.0000000E+00  0.1777778E-01
    1      -13.470515   1.000000
    2      -13.159129   1.000000
    3       -2.317740   1.000000
    4       -2.208595   1.000000
    5       -2.113945   1.000000
    6       -0.437682   1.000000
    7       -0.383374   1.000000
    8       -0.309838   1.000000
    9       10.329207   0.000000
   10       12.145339   0.000000
   11       12.730233   0.000000
   12       13.386528   0.000000
   13       13.673338   0.000000
   14       16.223723   0.000000
   15       17.207885   0.000000
 
  0.2666667E+00  0.6666667E-01  0.0000000E+00  0.1777778E-01
    1      -12.633110   1.000000
    2      -12.339086   1.000000
    3       -3.941885   1.000000
    4       -3.812862   1.000000
    5       -1.312078   1.000000
    6       -1.109343   1.000000
    7       -1.046874   1.000000
    8        0.594570   1.000000
    9       10.210594   0.000000
   10       11.034002   0.000000
   11       11.355860   0.000000
   12       13.152078   0.000000
   13       13.527851   0.000000
   14       16.839658   0.000000
   15       18.778743   0.000000
 
  0.3333333E+00  0.6666667E-01  0.0000000E+00  0.1777778E-01
    1      -11.601960   1.000000
    2      -11.329148   1.000000
    3       -5.680077   1.000000
    4       -5.519390   1.000000
    5       -1.619088   1.000000
    6       -1.552123   1.000000
    7       -0.110225   1.000000
    8        1.621557   1.000000
    9        8.291794   0.000000
   10        9.312229   0.000000
   11       12.577855   0.000000
   12       12.946934   0.000000
   13       13.385346   0.000000
   14       17.488888   0.000000
   15       18.926752   0.000000
 
  0.4000000E+00  0.6666667E-01  0.0000000E+00  0.1777778E-01
    1      -10.399330   1.000000
    2      -10.153932   1.000000
    3       -7.326635   1.000000
    4       -7.140457   1.000000
    5       -1.935219   1.000000
    6       -1.865960   1.000000
    7        1.178978   1.000000
    8        2.527018   1.000000
    9        6.739636   0.000000
   10        7.750437   0.000000
   11       12.745094   0.000000
   12       13.185544   0.000000
   13       14.194026   0.000000
   14       17.563858   0.000000
   15       18.101003   0.000000
 
  0.4666667E+00  0.6666667E-01  0.0000000E+00  0.8888889E-02
    1       -9.313749   1.000000
    2       -9.190163   1.000000
    3       -8.456328   1.000000
    4       -8.363836   1.000000
    5       -2.042175   1.000000
    6       -1.972166   1.000000
    7        2.013699   1.000000
    8        2.746012   1.000000
    9        6.213926   0.000000
   10        6.904176   0.000000
   11       12.692871   0.000000
   12       13.156344   0.000000
   13       15.812935   0.000000
   14       15.875958   0.000000
   15       18.484311   0.000000
 
  0.1333333E+00  0.1333333E+00  0.0000000E+00  0.8888889E-02
    1      -13.575966   1.000000
    2      -13.262440   1.000000
    3       -2.444995   1.000000
    4       -1.693724   1.000000
    5       -1.644387   1.000000
    6       -0.640938   1.000000
    7       -0.605748   1.000000
    8       -0.425220   1.000000
    9       10.203621   0.000000
   10       12.517638   0.000000
   11       12.968008   0.000000
   12       14.139582   0.000000
   13       14.339619   0.000000
   14       16.078428   0.000000
   15       16.203692   0.000000
 
  0.2000000E+00  0.1333333E+00  0.0000000E+00  0.1777778E-01
    1      -12.841988   1.000000
    2      -12.543546   1.000000
    3       -3.099528   1.000000
    4       -3.010918   1.000000
    5       -1.567731   1.000000
    6       -1.557945   1.000000
    7       -1.507101   1.000000
    8        0.379936   1.000000
    9       10.874306   0.000000
   10       11.110686   0.000000
   11       11.449065   0.000000
   12       14.365766   0.000000
   13       14.693018   0.000000
   14       16.517717   0.000000
   15       17.011753   0.000000
 
  0.2666667E+00  0.1333333E+00  0.0000000E+00  0.1777778E-01
    1      -11.910433   1.000000
    2      -11.631307   1.000000
    3       -4.717401   1.000000
    4       -4.584434   1.000000
    5       -2.251128   1.000000
    6       -2.170336   1.000000
    7       -0.452536   1.000000
    8        1.355231   1.000000
    9        9.075476   0.000000
   10        9.850652   0.000000
   11       12.260066   0.000000
   12       14.216185   0.000000
   13       14.664074   0.000000
   14       16.931872   0.000000
   15       18.115443   0.000000
 
  0.3333333E+00  0.1333333E+00  0.0000000E+00  0.1777778E-01
    1      -10.796002   1.000000
    2      -10.540478   1.000000
    3       -6.358116   1.000000
    4       -6.191053   1.000000
    5       -2.699216   1.000000
    6       -2.609502   1.000000
    7        0.812960   1.000000
    8        2.380451   1.000000
    9        7.365110   0.000000
   10        8.281643   0.000000
   11       13.613587   0.000000
   12       14.041315   0.000000
   13       14.553066   0.000000
   14       17.262776   0.000000
   15       18.123475   0.000000
 
  0.4000000E+00  0.1333333E+00  0.0000000E+00  0.1777778E-01
    1       -9.552938   1.000000
    2       -9.338791   1.000000
    3       -7.864248   1.000000
    4       -7.686430   1.000000
    5       -2.922717   1.000000
    6       -2.829574   1.000000
    7        2.026649   1.000000
    8        3.018046   1.000000
    9        6.288076   0.000000
   10        6.977740   0.000000
   11       13.903869   0.000000
   12       14.436079   0.000000
   13       15.232381   0.000000
   14       16.841875   0.000000
   15       17.541747   0.000000
 
  0.2000000E+00  0.2000000E+00  0.0000000E+00  0.8888889E-02
    1      -12.013816   1.000000
    2      -11.732501   1.000000
    3       -4.079086   1.000000
    4       -4.009766   1.000000
    5       -2.760363   1.000000
    6       -2.708353   1.000000
    7       -0.568098   1.000000
    8        1.263426   1.000000
    9        9.441118   0.000000
   10       10.019526   0.000000
   11       12.138388   0.000000
   12       15.507326   0.000000
   13       15.827558   0.000000
   14       16.688960   0.000000
   15       17.083124   0.000000
 
  0.2666667E+00  0.2000000E+00  0.0000000E+00  0.1777778E-01
    1      -10.997833   1.000000
    2      -10.737821   1.000000
    3       -5.393103   1.000000
    4       -5.272377   1.000000
    5       -3.598664   1.000000
    6       -3.509705   1.000000
    7        0.617839   1.000000
    8        2.281898   1.000000
    9        7.892236   0.000000
   10        8.575000   0.000000
   11       13.390602   0.000000
   12       15.681542   0.000000
   13       16.312229   0.000000
   14       16.673436   0.000000
   15       17.583397   0.000000
 
  0.3333333E+00  0.2000000E+00  0.0000000E+00  0.1777778E-01
    1       -9.820840   1.000000
    2       -9.588587   1.000000
    3       -6.866995   1.000000
    4       -6.702932   1.000000
    5       -4.026267   1.000000
    6       -3.914756   1.000000
    7        1.907877   1.000000
    8        3.238254   1.000000
    9        6.495481   0.000000
   10        7.209200   0.000000
   11       14.821015   0.000000
   12       15.535701   0.000000
   13       16.291660   0.000000
   14       16.586234   0.000000
   15       17.057574   0.000000
 
  0.4000000E+00  0.2000000E+00  0.0000000E+00  0.8888889E-02
    1       -8.777277   1.000000
    2       -8.660151   1.000000
    3       -7.922648   1.000000
    4       -7.844227   1.000000
    5       -4.158097   1.000000
    6       -4.041175   1.000000
    7        2.788521   1.000000
    8        3.499455   1.000000
    9        6.109878   0.000000
   10        6.272334   0.000000
   11       15.458284   0.000000
   12       16.231214   0.000000
   13       16.283086   0.000000
   14       16.409773   0.000000
   15       16.648034   0.000000
 
  0.2666667E+00  0.2666667E+00  0.0000000E+00  0.8888889E-02
    1       -9.915619   1.000000
    2       -9.679758   1.000000
    3       -6.126418   1.000000
    4       -6.038169   1.000000
    5       -4.751256   1.000000
    6       -4.685805   1.000000
    7        1.853400   1.000000
    8        3.304787   1.000000
    9        6.635373   0.000000
   10        7.308305   0.000000
   11       14.699626   0.000000
   12       16.217151   0.000000
   13       16.661503   0.000000
   14       16.909225   0.000000
   15       17.095803   0.000000
 
  0.3333333E+00  0.2666667E+00  0.0000000E+00  0.1777778E-01
    1       -8.727215   1.000000
    2       -8.532646   1.000000
    3       -7.221939   1.000000
    4       -7.089126   1.000000
    5       -5.314172   1.000000
    6       -5.206529   1.000000
    7        3.108475   1.000000
    8        4.113416   1.000000
    9        5.590020   0.000000
   10        6.170443   0.000000
   11       15.897986   0.000000
   12       15.987950   0.000000
   13       16.066386   0.000000
   14       16.834372   0.000000
   15       17.139061   0.000000
 
  0.3333333E+00  0.3333333E+00  0.0000000E+00  0.2962963E-02
    1       -7.758434   1.000000
    2       -7.650751   1.000000
    3       -7.650751   1.000000
    4       -7.547454   1.000000
    5       -5.947775   1.000000
    6       -5.947775   1.000000
    7        4.069595   1.000000
    8        4.727948   0.613190
    9        4.727948   0.613190
   10        5.527428   0.000000
   11       15.617755   0.000000
   12       15.617755   0.000000
   13       16.873563   0.000000
   14       17.076954   0.000000
   15       17.076954   0.000000
 
  0.0000000E+00  0.0000000E+00  0.3333333E+00  0.2962963E-02
    1      -14.770097   1.000000
    2      -14.600270   1.000000
    3       -3.545059   1.000000
    4       -2.495791   1.000000
    5        1.768972   1.000000
    6        1.768973   1.000000
    7        1.778797   1.000000
    8        1.778798   1.000000
    9        9.976571   0.000000
   10       12.964964   0.000000
   11       13.192933   0.000000
   12       13.192933   0.000000
   13       13.221369   0.000000
   14       13.221370   0.000000
   15       16.328761   0.000000
 
  0.6666667E-01  0.6938894E-17  0.3333333E+00  0.1777778E-01
    1      -14.663666   1.000000
    2      -14.494970   1.000000
    3       -3.415234   1.000000
    4       -2.370193   1.000000
    5        1.349278   1.000000
    6        1.364758   1.000000
    7        1.540155   1.000000
    8        1.553845   1.000000
    9       10.098462   0.000000
   10       13.019120   0.000000
   11       13.282593   0.000000
   12       13.302968   0.000000
   13       13.651281   0.000000
   14       13.679632   0.000000
   15       15.954596   0.000000
 
  0.1333333E+00  0.1387779E-16  0.3333333E+00  0.1777778E-01
    1      -14.345207   1.000000
    2      -14.179770   1.000000
    3       -3.027549   1.000000
    4       -1.995672   1.000000
    5        0.230365   1.000000
    6        0.258046   1.000000
    7        0.962929   1.000000
    8        0.982387   1.000000
    9       10.464569   0.000000
   10       13.126683   0.000000
   11       13.344758   0.000000
   12       13.554608   0.000000
   13       14.908917   0.000000
   14       14.911853   0.000000
   15       14.939250   0.000000
 
  0.2000000E+00  0.0000000E+00  0.3333333E+00  0.1777778E-01
    1      -13.816830   1.000000
    2      -13.657021   1.000000
    3       -2.388207   1.000000
    4       -1.382429   1.000000
    5       -1.309686   1.000000
    6       -1.269599   1.000000
    7        0.243638   1.000000
    8        0.267361   1.000000
    9       11.064385   0.000000
   10       13.046681   0.000000
   11       13.221806   0.000000
   12       13.347552   0.000000
   13       13.614036   0.000000
   14       14.142252   0.000000
   15       16.754347   0.000000
 
  0.2666667E+00  0.0000000E+00  0.3333333E+00  0.1777778E-01
    1      -13.082656   1.000000
    2      -12.930440   1.000000
    3       -3.046692   1.000000
    4       -2.988190   1.000000
    5       -1.509605   1.000000
    6       -0.539188   1.000000
    7       -0.454808   1.000000
    8       -0.428295   1.000000
    9       11.337237   0.000000
   10       11.787823   0.000000
   11       12.027249   0.000000
   12       12.899410   0.000000
   13       13.167645   0.000000
   14       14.809140   0.000000
   15       18.926888   0.000000
 
  0.3333333E+00 -0.5551115E-16  0.3333333E+00  0.1777778E-01
    1      -12.149680   1.000000
    2      -12.007031   1.000000
    3       -4.819993   1.000000
    4       -4.745831   1.000000
    5       -1.035153   1.000000
    6       -1.006905   1.000000
    7       -0.420633   1.000000
    8        0.487951   1.000000
    9        9.460678   0.000000
   10        9.963310   0.000000
   11       12.614245   0.000000
   12       12.728933   0.000000
   13       13.299795   0.000000
   14       15.704012   0.000000
   15       20.150309   0.000000
 
  0.4000000E+00  0.0000000E+00  0.3333333E+00  0.1777778E-01
    1      -11.031113   1.000000
    2      -10.900274   1.000000
    3       -6.534851   1.000000
    4       -6.446303   1.000000
    5       -1.444250   1.000000
    6       -1.414960   1.000000
    7        0.807582   1.000000
    8        1.597875   1.000000
    9        7.641565   0.000000
   10        8.201139   0.000000
   11       12.461014   0.000000
   12       12.660833   0.000000
   13       14.450491   0.000000
   14       16.700757   0.000000
   15       19.087334   0.000000
 
  0.4666667E+00  0.0000000E+00  0.3333333E+00  0.1777778E-01
    1       -9.780134   1.000000
    2       -9.669573   1.000000
    3       -8.085624   1.000000
    4       -7.992461   1.000000
    5       -1.654627   1.000000
    6       -1.624876   1.000000
    7        1.920934   1.000000
    8        2.430792   1.000000
    9        6.388242   0.000000
   10        6.846990   0.000000
   11       12.360682   0.000000
   12       12.582130   0.000000
   13       15.879195   0.000000
   14       17.243927   0.000000
   15       18.064970   0.000000
 
  0.6666667E-01  0.6666667E-01  0.3333333E+00  0.1777778E-01
    1      -14.451253   1.000000
    2      -14.284732   1.000000
    3       -3.156456   1.000000
    4       -2.120103   1.000000
    5        0.637441   1.000000
    6        0.652536   1.000000
    7        1.087191   1.000000
    8        1.098888   1.000000
    9       10.343334   0.000000
   10       13.162740   0.000000
   11       13.464827   0.000000
   12       13.544570   0.000000
   13       14.364885   0.000000
   14       14.394705   0.000000
   15       15.251449   0.000000
 
  0.1333333E+00  0.6666667E-01  0.3333333E+00  0.3555556E-01
    1      -14.027817   1.000000
    2      -13.865740   1.000000
    3       -2.642704   1.000000
    4       -1.624685   1.000000
    5       -0.602831   1.000000
    6       -0.573894   1.000000
    7        0.345207   1.000000
    8        0.365010   1.000000
    9       10.832268   0.000000
   10       13.374768   0.000000
   11       13.616660   0.000000
   12       13.822038   0.000000
   13       14.058015   0.000000
   14       14.226573   0.000000
   15       15.595077   0.000000
 
  0.2000000E+00  0.6666667E-01  0.3333333E+00  0.3555556E-01
    1      -13.396555   1.000000
    2      -13.241118   1.000000
    3       -2.185391   1.000000
    4       -2.138622   1.000000
    5       -1.882006   1.000000
    6       -0.894829   1.000000
    7       -0.424281   1.000000
    8       -0.397129   1.000000
    9       11.523668   0.000000
   10       12.314618   0.000000
   11       12.539355   0.000000
   12       13.409502   0.000000
   13       13.656039   0.000000
   14       14.482822   0.000000
   15       17.259245   0.000000
 
  0.2666667E+00  0.6666667E-01  0.3333333E+00  0.3555556E-01
    1      -12.562973   1.000000
    2      -12.416148   1.000000
    3       -3.910225   1.000000
    4       -3.845785   1.000000
    5       -1.093921   1.000000
    6       -1.062727   1.000000
    7       -0.895546   1.000000
    8        0.044179   1.000000
    9       10.367475   0.000000
   10       10.791778   0.000000
   11       12.525695   0.000000
   12       13.221076   0.000000
   13       13.511842   0.000000
   14       15.253415   0.000000
   15       18.956468   0.000000
 
  0.3333333E+00  0.6666667E-01  0.3333333E+00  0.3555556E-01
    1      -11.536646   1.000000
    2      -11.400392   1.000000
    3       -5.640973   1.000000
    4       -5.560633   1.000000
    5       -1.602503   1.000000
    6       -1.569050   1.000000
    7        0.275980   1.000000
    8        1.133259   1.000000
    9        8.489750   0.000000
   10        9.005244   0.000000
   11       12.990004   0.000000
   12       13.145974   0.000000
   13       13.900167   0.000000
   14       16.153144   0.000000
   15       19.372592   0.000000
 
  0.4000000E+00  0.6666667E-01  0.3333333E+00  0.3555556E-01
    1      -10.340224   1.000000
    2      -10.217665   1.000000
    3       -7.281731   1.000000
    4       -7.188644   1.000000
    5       -1.918070   1.000000
    6       -1.883425   1.000000
    7        1.505827   1.000000
    8        2.184194   1.000000
    9        6.887312   0.000000
   10        7.403419   0.000000
   11       12.852625   0.000000
   12       13.073274   0.000000
   13       15.178137   0.000000
   14       16.997917   0.000000
   15       18.378302   0.000000
 
  0.4666667E+00  0.6666667E-01  0.3333333E+00  0.1777778E-01
    1       -9.276893   1.000000
    2       -9.213888   1.000000
    3       -8.444463   1.000000
    4       -8.396966   1.000000
    5       -2.024847   1.000000
    6       -1.989878   1.000000
    7        2.247512   1.000000
    8        2.629952   1.000000
    9        6.210317   0.000000
   10        6.572211   0.000000
   11       12.801142   0.000000
   12       13.033171   0.000000
   13       16.448792   0.000000
   14       16.697732   0.000000
   15       18.010634   0.000000
 
  0.1333333E+00  0.1333333E+00  0.3333333E+00  0.1777778E-01
    1      -13.501547   1.000000
    2      -13.344984   1.000000
    3       -2.008444   1.000000
    4       -1.681134   1.000000
    5       -1.655576   1.000000
    6       -1.014183   1.000000
    7       -0.633146   1.000000
    8       -0.615439   1.000000
    9       11.443207   0.000000
   10       12.615516   0.000000
   11       12.839698   0.000000
   12       13.955538   0.000000
   13       14.344135   0.000000
   14       14.516858   0.000000
   15       16.105654   0.000000
 
  0.2000000E+00  0.1333333E+00  0.3333333E+00  0.3555556E-01
    1      -12.770940   1.000000
    2      -12.621962   1.000000
    3       -3.077377   1.000000
    4       -3.033089   1.000000
    5       -1.553402   1.000000
    6       -1.523086   1.000000
    7       -1.135915   1.000000
    8       -0.181456   1.000000
    9       11.002598   0.000000
   10       11.293572   0.000000
   11       12.294692   0.000000
   12       14.331251   0.000000
   13       14.653104   0.000000
   14       15.047711   0.000000
   15       17.099851   0.000000
 
  0.2666667E+00  0.1333333E+00  0.3333333E+00  0.3555556E-01
    1      -11.843709   1.000000
    2      -11.704317   1.000000
    3       -4.684737   1.000000
    4       -4.618269   1.000000
    5       -2.231440   1.000000
    6       -2.191021   1.000000
    7       -0.054067   1.000000
    8        0.838672   1.000000
    9        9.246509   0.000000
   10        9.638602   0.000000
   11       13.320311   0.000000
   12       14.282376   0.000000
   13       14.604986   0.000000
   14       15.687249   0.000000
   15       18.340599   0.000000
 
  0.3333333E+00  0.1333333E+00  0.3333333E+00  0.3555556E-01
    1      -10.734629   1.000000
    2      -10.606942   1.000000
    3       -6.317561   1.000000
    4       -6.233987   1.000000
    5       -2.677227   1.000000
    6       -2.632370   1.000000
    7        1.171336   1.000000
    8        1.951120   1.000000
    9        7.544295   0.000000
   10        8.009720   0.000000
   11       14.108787   0.000000
   12       14.248464   0.000000
   13       14.745068   0.000000
   14       16.314194   0.000000
   15       18.428678   0.000000
 
  0.4000000E+00  0.1333333E+00  0.3333333E+00  0.3555556E-01
    1       -9.500438   1.000000
    2       -9.393348   1.000000
    3       -7.822494   1.000000
    4       -7.733510   1.000000
    5       -2.899903   1.000000
    6       -2.853277   1.000000
    7        2.300469   1.000000
    8        2.810511   1.000000
    9        6.332603   0.000000
   10        6.697843   0.000000
   11       14.015537   0.000000
   12       14.277636   0.000000
   13       15.799775   0.000000
   14       16.574010   0.000000
   15       17.830810   0.000000
 
  0.2000000E+00  0.2000000E+00  0.3333333E+00  0.1777778E-01
    1      -11.946625   1.000000
    2      -11.806199   1.000000
    3       -4.060857   1.000000
    4       -4.026128   1.000000
    5       -2.749437   1.000000
    6       -2.723360   1.000000
    7       -0.165767   1.000000
    8        0.738083   1.000000
    9        9.586655   0.000000
   10        9.873705   0.000000
   11       13.190283   0.000000
   12       15.179284   0.000000
   13       15.838608   0.000000
   14       15.892068   0.000000
   15       17.067545   0.000000
 
  0.2666667E+00  0.2000000E+00  0.3333333E+00  0.3555556E-01
    1      -10.935482   1.000000
    2      -10.805585   1.000000
    3       -5.363059   1.000000
    4       -5.302655   1.000000
    5       -3.577941   1.000000
    6       -3.533430   1.000000
    7        0.990268   1.000000
    8        1.814456   1.000000
    9        8.057589   0.000000
   10        8.399371   0.000000
   11       14.195415   0.000000
   12       15.457303   0.000000
   13       16.160952   0.000000
   14       16.215482   0.000000
   15       17.691021   0.000000
 
  0.3333333E+00  0.2000000E+00  0.3333333E+00  0.3555556E-01
    1       -9.764701   1.000000
    2       -9.648669   1.000000
    3       -6.827235   1.000000
    4       -6.745133   1.000000
    5       -3.999344   1.000000
    6       -3.943607   1.000000
    7        2.227468   1.000000
    8        2.895811   1.000000
    9        6.630611   0.000000
   10        6.995807   0.000000
   11       15.047653   0.000000
   12       15.402017   0.000000
   13       16.102616   0.000000
   14       16.238027   0.000000
   15       17.667812   0.000000
 
  0.4000000E+00  0.2000000E+00  0.3333333E+00  0.1777778E-01
    1       -8.742557   1.000000
    2       -8.683074   1.000000
    3       -7.912721   1.000000
    4       -7.872565   1.000000
    5       -4.129773   1.000000
    6       -4.071326   1.000000
    7        3.023148   1.000000
    8        3.397659   1.000000
    9        6.019118   0.000000
   10        6.128881   0.000000
   11       15.337053   0.000000
   12       15.342770   0.000000
   13       16.122906   0.000000
   14       16.235663   0.000000
   15       17.728966   0.000000
 
  0.2666667E+00  0.2666667E+00  0.3333333E+00  0.1777778E-01
    1       -9.858780   1.000000
    2       -9.740937   1.000000
    3       -6.103010   1.000000
    4       -6.058757   1.000000
    5       -4.738469   1.000000
    6       -4.705605   1.000000
    7        2.188199   1.000000
    8        2.910849   1.000000
    9        6.803060   0.000000
   10        7.135449   0.000000
   11       14.826021   0.000000
   12       15.368709   0.000000
   13       17.130511   0.000000
   14       17.548903   0.000000
   15       17.727590   0.000000
 
  0.3333333E+00  0.2666667E+00  0.3333333E+00  0.3555556E-01
    1       -8.679386   1.000000
    2       -8.582096   1.000000
    3       -7.189802   1.000000
    4       -7.123313   1.000000
    5       -5.289711   1.000000
    6       -5.235799   1.000000
    7        3.382774   1.000000
    8        3.901699   1.000000
    9        5.683421   0.000000
   10        5.970403   0.000000
   11       14.926468   0.000000
   12       15.078510   0.000000
   13       17.268817   0.000000
   14       17.925265   0.000000
   15       18.081971   0.000000
 
  0.3333333E+00  0.3333333E+00  0.3333333E+00  0.5925926E-02
    1       -7.707467   1.000000
    2       -7.648163   1.000000
    3       -7.648163   1.000000
    4       -7.602019   1.000000
    5       -5.952751   1.000000