 running on   20 total cores
 distrk:  each k-point on   20 cores,    1 groups
 distr:  one band on    4 cores,    5 groups
 using from now: INCAR     
 vasp.5.4.4.18Apr17-6-g9f103f2a35 (build Oct 27 2021 09:51:08) complex          
  
 POSCAR found type information on POSCAR  C 
 POSCAR found :  1 types and       4 ions
 scaLAPACK will be used
 LDA part: xc-table for Ceperly-Alder, standard interpolation
 POSCAR, INCAR and KPOINTS ok, starting setup
 FFT: planning ...
 WAVECAR not read
 entering main loop
       N       E                     dE             d eps       ncg     rms          rms(c)
DAV:   1     0.242744168243E+02    0.24274E+02   -0.84787E+03  1620   0.995E+02
DAV:   2    -0.407964882394E+02   -0.65071E+02   -0.60883E+02  2170   0.183E+02
DAV:   3    -0.432882721421E+02   -0.24918E+01   -0.24816E+01  2110   0.339E+01
DAV:   4    -0.433120111559E+02   -0.23739E-01   -0.23731E-01  2185   0.390E+00
DAV:   5    -0.433122515130E+02   -0.24036E-03   -0.24034E-03  2230   0.327E-01    0.940E+00
DAV:   6    -0.411176904768E+02    0.21946E+01   -0.17607E+00  1900   0.831E+00    0.534E+00
DAV:   7    -0.404455417900E+02    0.67215E+00   -0.19280E+00  1880   0.884E+00    0.145E+00
DAV:   8    -0.404478104148E+02   -0.22686E-02   -0.88862E-02  1965   0.186E+00    0.310E-01
DAV:   9    -0.404460454078E+02    0.17650E-02   -0.31114E-03  2080   0.378E-01    0.102E-01
DAV:  10    -0.404459974224E+02    0.47985E-04   -0.39458E-04  2195   0.133E-01    0.425E-02
DAV:  11    -0.404459953266E+02    0.20959E-05   -0.11950E-05  2070   0.226E-02    0.149E-02
DAV:  12    -0.404459950477E+02    0.27888E-06   -0.71272E-07  2205   0.547E-03    0.514E-03
DAV:  13    -0.404459950538E+02   -0.61661E-08   -0.12348E-07  2060   0.248E-03    0.773E-04
DAV:  14    -0.404459950545E+02   -0.61664E-09   -0.63153E-09  1545   0.572E-04
   1 F= -.40445995E+02 E0= -.40445504E+02  d E =-.982717E-03
 writing wavefunctions
