 vasp.5.4.4.18Apr17-6-g9f103f2a35 (build Oct 27 2021 09:51:08) complex          
  
 executed on             LinuxIFC date 2021.11.07  09:45:29
 running on   20 total cores
 distrk:  each k-point on   20 cores,    1 groups
 distr:  one band on NCORES_PER_BAND=   4 cores,    5 groups


--------------------------------------------------------------------------------------------------------


 INCAR:
 POTCAR:    PAW C 22Mar2012                       
 POTCAR:    PAW C 22Mar2012                       
   VRHFIN =C: s2p2                                                              
   LEXCH  = CA                                                                  
   EATOM  =   146.6860 eV,   10.7811 Ry                                         
                                                                                
   TITEL  = PAW C 22Mar2012                                                     
   LULTRA =        F    use ultrasoft PP ?                                      
   IUNSCR =        1    unscreen: 0-lin 1-nonlin 2-no                           
   RPACOR =    1.200    partial core radius                                     
   POMASS =   12.011; ZVAL   =    4.000    mass and valenz                      
   RCORE  =    1.500    outmost cutoff radius                                   
   RWIGS  =    1.630; RWIGS  =    0.863    wigner-seitz radius (au A)           
   ENMAX  =  400.000; ENMIN  =  300.000 eV                                      
   ICORE  =        2    local potential                                         
   LCOR   =        T    correct aug charges                                     
   LPAW   =        T    paw PP                                                  
   EAUG   =  644.873                                                            
   DEXC   =    0.000                                                            
   RMAX   =    1.529    core radius for proj-oper                               
   RAUG   =    1.300    factor for augmentation sphere                          
   RDEP   =    1.501    radius for radial grids                                 
   RDEPT  =    1.300    core radius for aug-charge                              
                                                                                
   Atomic configuration                                                         
    4 entries                                                                   
     n  l   j            E        occ.                                          
     1  0  0.50      -270.6511   2.0000                                         
     2  0  0.50       -13.6383   2.0000                                         
     2  1  0.50        -5.4212   2.0000                                         
     3  2  1.50        -5.4423   0.0000                                         
   Description                                                                  
     l       E           TYP  RCUT    TYP  RCUT                                 
     0    -13.6382841     23  1.200                                             
     0     -7.9195854     23  1.200                                             
     1     -5.4211532     23  1.500                                             
     1     34.0145650     23  1.500                                             
     2     -5.4423304      7  1.500                                             
  local pseudopotential read in
  partial core-charges read in
  partial kinetic energy density read in
  kinetic energy density of atom read in
  atomic valenz-charges read in
  non local Contribution for L=           0  read in
    real space projection operators read in
  non local Contribution for L=           0  read in
    real space projection operators read in
  non local Contribution for L=           1  read in
    real space projection operators read in
  non local Contribution for L=           1  read in
    real space projection operators read in
    PAW grid and wavefunctions read in
 
   number of l-projection  operators is LMAX  =           4
   number of lm-projection operators is LMMAX =           8
 
  PAW C 22Mar2012                       :
 energy of atom  1       EATOM= -146.6860
 kinetic energy error for atom=    0.0070 (will be added to EATOM!!)
 
 
 POSCAR:  C                                      
  positions in cartesian coordinates
  No initial velocities read in
 exchange correlation table for  LEXCH =        2
   RHO(1)=    0.500       N(1)  =     2000
   RHO(2)=  100.500       N(2)  =     4000
 


--------------------------------------------------------------------------------------------------------


 ion  position               nearest neighbor table
   1  0.000  0.000  0.000-   2 1.41   2 1.41   2 1.41
   2  0.333  0.667  0.000-   1 1.41   1 1.41   1 1.41
   3  0.333  0.667  0.500-   4 1.41   4 1.41   4 1.41
   4  0.667  0.333  0.500-   3 1.41   3 1.41   3 1.41
 
  LATTYP: Found a hexagonal cell.
 ALAT       =     2.4475419134
 C/A-ratio  =     2.7173352541
  
  Lattice vectors:
  
 A1 = (   2.4475419134,   0.0000000000,   0.0000000000)
 A2 = (  -1.2237709567,   2.1196334738,   0.0000000000)
 A3 = (   0.0000000000,   0.0000000000,   6.6507919270)


Analysis of symmetry for initial positions (statically):
=====================================================================
 Subroutine PRICEL returns:
 Original cell was already a primitive cell.
 

 Routine SETGRP: Setting up the symmetry group for a 
 hexagonal supercell.


 Subroutine GETGRP returns: Found 24 space group operations
 (whereof 12 operations were pure point group operations)
 out of a pool of 24 trial point group operations.


The static configuration has the point symmetry D_3h.
 The point group associated with its full space group is D_6h.


Analysis of symmetry for dynamics (positions and initial velocities):
=====================================================================
 Subroutine PRICEL returns:
 Original cell was already a primitive cell.
 

 Routine SETGRP: Setting up the symmetry group for a 
 hexagonal supercell.


 Subroutine GETGRP returns: Found 24 space group operations
 (whereof 12 operations were pure point group operations)
 out of a pool of 24 trial point group operations.


The dynamic configuration has the point symmetry D_3h.
 The point group associated with its full space group is D_6h.


 Subroutine INISYM returns: Found 24 space group operations
 (whereof 12 operations are pure point group operations),
 and found     1 'primitive' translations

 
 
 KPOINTS: KPOINTS created by Atomic Simulation Env

Automatic generation of k-mesh.
Space group operators:
 irot       det(A)        alpha          n_x          n_y          n_z        tau_x        tau_y        tau_z
    1     1.000000     0.000001     1.000000     0.000000     0.000000     0.000000     0.000000     0.000000
    2    -1.000000    60.000000     0.000000     0.000000    -1.000000     0.000000     0.000000     0.000000
    3     1.000000   120.000000     0.000000     0.000000    -1.000000     0.000000     0.000000     0.000000
    4    -1.000000   180.000000     0.000000     0.000000     1.000000     0.000000     0.000000     0.000000
    5     1.000000   120.000000     0.000000     0.000000     1.000000     0.000000     0.000000     0.000000
    6    -1.000000    60.000000     0.000000     0.000000     1.000000     0.000000     0.000000     0.000000
    7    -1.000000   180.000000     1.000000    -0.000000     0.000000     0.000000     0.000000     0.000000
    8     1.000000   180.000000     0.866025    -0.500000     0.000000     0.000000     0.000000     0.000000
    9    -1.000000   179.999999     0.500000    -0.866025     0.000000     0.000000     0.000000     0.000000
   10     1.000000   180.000000     0.000000     1.000000     0.000000     0.000000     0.000000     0.000000
   11    -1.000000   180.000000    -0.500000    -0.866025     0.000000     0.000000     0.000000     0.000000
   12     1.000000   180.000000     0.866025     0.500000     0.000000     0.000000     0.000000     0.000000
   13    -1.000000     0.000001     1.000000     0.000000     0.000000     0.666667     0.333333     0.500000
   14     1.000000    60.000000     0.000000     0.000000    -1.000000     0.666667     0.333333     0.500000
   15    -1.000000   120.000000     0.000000     0.000000    -1.000000     0.666667     0.333333     0.500000
   16     1.000000   180.000000     0.000000     0.000000     1.000000     0.666667     0.333333     0.500000
   17    -1.000000   120.000000     0.000000     0.000000     1.000000     0.666667     0.333333     0.500000
   18     1.000000    60.000000     0.000000     0.000000     1.000000     0.666667     0.333333     0.500000
   19     1.000000   180.000000     1.000000    -0.000000     0.000000     0.666667     0.333333     0.500000
   20    -1.000000   180.000000     0.866025    -0.500000     0.000000     0.666667     0.333333     0.500000
   21     1.000000   179.999999     0.500000    -0.866025     0.000000     0.666667     0.333333     0.500000
   22    -1.000000   180.000000     0.000000     1.000000     0.000000     0.666667     0.333333     0.500000
   23     1.000000   180.000000    -0.500000    -0.866025     0.000000     0.666667     0.333333     0.500000
   24    -1.000000   180.000000     0.866025     0.500000     0.000000     0.666667     0.333333     0.500000
 
 Subroutine IBZKPT returns following result:
 ===========================================
 
 Found     54 irreducible k-points:
 
 Following reciprocal coordinates:
            Coordinates               Weight
  0.000000  0.000000  0.000000      1.000000
  0.066667  0.000000  0.000000      6.000000
  0.133333  0.000000  0.000000      6.000000
  0.200000  0.000000  0.000000      6.000000
  0.266667  0.000000  0.000000      6.000000
  0.333333 -0.000000  0.000000      6.000000
  0.400000  0.000000  0.000000      6.000000
  0.466667  0.000000  0.000000      6.000000
  0.066667  0.066667  0.000000      6.000000
  0.133333  0.066667  0.000000     12.000000
  0.200000  0.066667  0.000000     12.000000
  0.266667  0.066667  0.000000     12.000000
  0.333333  0.066667  0.000000     12.000000
  0.400000  0.066667  0.000000     12.000000
  0.466667  0.066667  0.000000      6.000000
  0.133333  0.133333  0.000000      6.000000
  0.200000  0.133333  0.000000     12.000000
  0.266667  0.133333  0.000000     12.000000
  0.333333  0.133333  0.000000     12.000000
  0.400000  0.133333  0.000000     12.000000
  0.200000  0.200000  0.000000      6.000000
  0.266667  0.200000  0.000000     12.000000
  0.333333  0.200000  0.000000     12.000000
  0.400000  0.200000  0.000000      6.000000
  0.266667  0.266667  0.000000      6.000000
  0.333333  0.266667  0.000000     12.000000
  0.333333  0.333333  0.000000      2.000000
  0.000000  0.000000  0.333333      2.000000
  0.066667  0.000000  0.333333     12.000000
  0.133333  0.000000  0.333333     12.000000
  0.200000  0.000000  0.333333     12.000000
  0.266667  0.000000  0.333333     12.000000
  0.333333 -0.000000  0.333333     12.000000
  0.400000  0.000000  0.333333     12.000000
  0.466667  0.000000  0.333333     12.000000
  0.066667  0.066667  0.333333     12.000000
  0.133333  0.066667  0.333333     24.000000
  0.200000  0.066667  0.333333     24.000000
  0.266667  0.066667  0.333333     24.000000
  0.333333  0.066667  0.333333     24.000000
  0.400000  0.066667  0.333333     24.000000
  0.466667  0.066667  0.333333     12.000000
  0.133333  0.133333  0.333333     12.000000
  0.200000  0.133333  0.333333     24.000000
  0.266667  0.133333  0.333333     24.000000
  0.333333  0.133333  0.333333     24.000000
  0.400000  0.133333  0.333333     24.000000
  0.200000  0.200000  0.333333     12.000000
  0.266667  0.200000  0.333333     24.000000
  0.333333  0.200000  0.333333     24.000000
  0.400000  0.200000  0.333333     12.000000
  0.266667  0.266667  0.333333     12.000000
  0.333333  0.266667  0.333333     24.000000
  0.333333  0.333333  0.333333      4.000000
 
 Following cartesian coordinates:
            Coordinates               Weight
  0.000000  0.000000  0.000000      1.000000
  0.027238  0.015726  0.000000      6.000000
  0.054476  0.031452  0.000000      6.000000
  0.081715  0.047178  0.000000      6.000000
  0.108953  0.062904  0.000000      6.000000
  0.136191  0.078630  0.000000      6.000000
  0.163429  0.094356  0.000000      6.000000
  0.190667  0.110082  0.000000      6.000000
  0.027238  0.047178  0.000000      6.000000
  0.054476  0.062904  0.000000     12.000000
  0.081715  0.078630  0.000000     12.000000
  0.108953  0.094356  0.000000     12.000000
  0.136191  0.110082  0.000000     12.000000
  0.163429  0.125808  0.000000     12.000000
  0.190667  0.141534  0.000000      6.000000
  0.054476  0.094356  0.000000      6.000000
  0.081715  0.110082  0.000000     12.000000
  0.108953  0.125808  0.000000     12.000000
  0.136191  0.141534  0.000000     12.000000
  0.163429  0.157260  0.000000     12.000000
  0.081715  0.141534  0.000000      6.000000
  0.108953  0.157260  0.000000     12.000000
  0.136191  0.172986  0.000000     12.000000
  0.163429  0.188712  0.000000      6.000000
  0.108953  0.188712  0.000000      6.000000
  0.136191  0.204438  0.000000     12.000000
  0.136191  0.235890  0.000000      2.000000
  0.000000  0.000000  0.050119      2.000000
  0.027238  0.015726  0.050119     12.000000
  0.054476  0.031452  0.050119     12.000000
  0.081715  0.047178  0.050119     12.000000
  0.108953  0.062904  0.050119     12.000000
  0.136191  0.078630  0.050119     12.000000
  0.163429  0.094356  0.050119     12.000000
  0.190667  0.110082  0.050119     12.000000
  0.027238  0.047178  0.050119     12.000000
  0.054476  0.062904  0.050119     24.000000
  0.081715  0.078630  0.050119     24.000000
  0.108953  0.094356  0.050119     24.000000
  0.136191  0.110082  0.050119     24.000000
  0.163429  0.125808  0.050119     24.000000
  0.190667  0.141534  0.050119     12.000000
  0.054476  0.094356  0.050119     12.000000
  0.081715  0.110082  0.050119     24.000000
  0.108953  0.125808  0.050119     24.000000
  0.136191  0.141534  0.050119     24.000000
  0.163429  0.157260  0.050119     24.000000
  0.081715  0.141534  0.050119     12.000000
  0.108953  0.157260  0.050119     24.000000
  0.136191  0.172986  0.050119     24.000000
  0.163429  0.188712  0.050119     12.000000
  0.108953  0.188712  0.050119     12.000000
  0.136191  0.204438  0.050119     24.000000
  0.136191  0.235890  0.050119      4.000000
 


--------------------------------------------------------------------------------------------------------




 Dimension of arrays:
   k-points           NKPTS =     54   k-points in BZ     NKDIM =     54   number of bands    NBANDS=     15
   number of dos      NEDOS =    301   number of ions     NIONS =      4
   non local maximal  LDIM  =      4   non local SUM 2l+1 LMDIM =      8
   total plane-waves  NPLWV =  16200
   max r-space proj   IRMAX =      1   max aug-charges    IRDMAX=   5740
   dimension x,y,z NGX =    18 NGY =   18 NGZ =   50
   dimension x,y,z NGXF=    36 NGYF=   36 NGZF=  100
   support grid    NGXF=    36 NGYF=   36 NGZF=  100
   ions per type =               4
   NGX,Y,Z   is equivalent  to a cutoff of  12.23, 12.23, 12.50 a.u.
   NGXF,Y,Z  is equivalent  to a cutoff of  24.45, 24.45, 25.00 a.u.

 SYSTEM =  unknown system                          
 POSCAR =   C                                      

 Startparameter for this run:
   NWRITE =      2    write-flag & timer
   PREC   = accura    normal or accurate (medium, high low for compatibility)
   ISTART =      0    job   : 0-new  1-cont  2-samecut
   ICHARG =      2    charge: 1-file 2-atom 10-const
   ISPIN  =      1    spin polarized calculation?
   LNONCOLLINEAR =      F non collinear calculations
   LSORBIT =      F    spin-orbit coupling
   INIWAV =      1    electr: 0-lowe 1-rand  2-diag
   LASPH  =      F    aspherical Exc in radial PAW
   METAGGA=      F    non-selfconsistent MetaGGA calc.

 Electronic Relaxation 1
   ENCUT  =  520.0 eV  38.22 Ry    6.18 a.u.   4.55  4.55 12.37*2*pi/ulx,y,z
   ENINI  =  520.0     initial cutoff
   ENAUG  =  644.9 eV  augmentation charge cutoff
   NELM   =     60;   NELMIN=  2; NELMDL= -5     # of ELM steps 
   EDIFF  = 0.1E-07   stopping-criterion for ELM
   LREAL  =      F    real-space projection
   NLSPLINE    = F    spline interpolate recip. space projectors
   LCOMPAT=      F    compatible to vasp.4.4
   GGA_COMPAT  = T    GGA compatible to vasp.4.4-vasp.4.6
   LMAXPAW     = -100 max onsite density
   LMAXMIX     =    2 max onsite mixed and CHGCAR
   VOSKOWN=      0    Vosko Wilk Nusair interpolation
   ROPT   =    0.00000
 Ionic relaxation
   EDIFFG = 0.1E-06   stopping-criterion for IOM
   NSW    =      0    number of steps for IOM
   NBLOCK =      1;   KBLOCK =      1    inner block; outer block 
   IBRION =     -1    ionic relax: 0-MD 1-quasi-New 2-CG
   NFREE  =      0    steps in history (QN), initial steepest desc. (CG)
   ISIF   =      2    stress and relaxation
   IWAVPR =     10    prediction:  0-non 1-charg 2-wave 3-comb
   ISYM   =      2    0-nonsym 1-usesym 2-fastsym
   LCORR  =      T    Harris-Foulkes like correction to forces

   POTIM  = 0.5000    time-step for ionic-motion
   TEIN   =    0.0    initial temperature
   TEBEG  =    0.0;   TEEND  =   0.0 temperature during run
   SMASS  =  -3.00    Nose mass-parameter (am)
   estimated Nose-frequenzy (Omega)   =  0.10E-29 period in steps =****** mass=  -0.137E-27a.u.
   SCALEE = 1.0000    scale energy and forces
   NPACO  =    256;   APACO  = 16.0  distance and # of slots for P.C.
   PSTRESS=    0.0 pullay stress

  Mass of Ions in am
   POMASS =  12.01
  Ionic Valenz
   ZVAL   =   4.00
  Atomic Wigner-Seitz radii
   RWIGS  =  -1.00
  virtual crystal weights 
   VCA    =   1.00
   NELECT =      16.0000    total number of electrons
   NUPDOWN=      -1.0000    fix difference up-down

 DOS related values:
   EMIN   =  10.00;   EMAX   =-10.00  energy-range for DOS
   EFERMI =   0.00
   ISMEAR =     0;   SIGMA  =   0.10  broadening in eV -4-tet -1-fermi 0-gaus

 Electronic relaxation 2 (details)
   IALGO  =     38    algorithm
   LDIAG  =      T    sub-space diagonalisation (order eigenvalues)
   LSUBROT=      F    optimize rotation matrix (better conditioning)
   TURBO    =      0    0=normal 1=particle mesh
   IRESTART =      0    0=no restart 2=restart with 2 vectors
   NREBOOT  =      0    no. of reboots
   NMIN     =      0    reboot dimension
   EREF     =   0.00    reference energy to select bands
   IMIX   =      4    mixing-type and parameters
     AMIX     =   0.40;   BMIX     =  1.00
     AMIX_MAG =   1.60;   BMIX_MAG =  1.00
     AMIN     =   0.10
     WC   =   100.;   INIMIX=   1;  MIXPRE=   1;  MAXMIX= -45

 Intra band minimization:
   WEIMIN = 0.0000     energy-eigenvalue tresh-hold
   EBREAK =  0.17E-09  absolut break condition
   DEPER  =   0.30     relativ break condition  

   TIME   =   0.40     timestep for ELM

  volume/ion in A,a.u.               =       8.63        58.21
  Fermi-wavevector in a.u.,A,eV,Ry     =   1.267146  2.394559 21.846325  1.605660
  Thomas-Fermi vector in A             =   2.400310
 
 Write flags
   LWAVE        =      T    write WAVECAR
   LDOWNSAMPLE  =      F    k-point downsampling of WAVECAR
   LCHARG       =      T    write CHGCAR
   LVTOT        =      F    write LOCPOT, total local potential
   LVHAR        =      F    write LOCPOT, Hartree potential only
   LELF         =      F    write electronic localiz. function (ELF)
   LORBIT       =      0    0 simple, 1 ext, 2 COOP (PROOUT), +10 PAW based schemes


 Dipole corrections
   LMONO  =      F    monopole corrections only (constant potential shift)
   LDIPOL =      F    correct potential (dipole corrections)
   IDIPOL =      0    1-x, 2-y, 3-z, 4-all directions 
   EPSILON=  1.0000000 bulk dielectric constant

 Exchange correlation treatment:
   GGA     =    --    GGA type
   LEXCH   =     2    internal setting for exchange type
   VOSKOWN=      0    Vosko Wilk Nusair interpolation
   LHFCALC =     F    Hartree Fock is set to
   LHFONE  =     F    Hartree Fock one center treatment
   AEXX    =    0.0000 exact exchange contribution

 Linear response parameters
   LEPSILON=     F    determine dielectric tensor
   LRPA    =     F    only Hartree local field effects (RPA)
   LNABLA  =     F    use nabla operator in PAW spheres
   LVEL    =     F    velocity operator in full k-point grid
   LINTERFAST=   F  fast interpolation
   KINTER  =     0    interpolate to denser k-point grid
   CSHIFT  =0.1000    complex shift for real part using Kramers Kronig
   OMEGAMAX=  -1.0    maximum frequency
   DEG_THRESHOLD= 0.2000000E-02 threshold for treating states as degnerate
   RTIME   =   -0.100 relaxation time in fs
  (WPLASMAI=    0.000 imaginary part of plasma frequency in eV, 0.658/RTIME)
   DFIELD  = 0.0000000 0.0000000 0.0000000 field for delta impulse in time
 
 Orbital magnetization related:
   ORBITALMAG=     F  switch on orbital magnetization
   LCHIMAG   =     F  perturbation theory with respect to B field
   DQ        =  0.001000  dq finite difference perturbation B field
   LLRAUG    =     F  two centre corrections for induced B field



--------------------------------------------------------------------------------------------------------


 Static calculation
 charge density and potential will be updated during run
 non-spin polarized calculation
 Variant of blocked Davidson
 Davidson routine will perform the subspace rotation
 perform sub-space diagonalisation
    after iterative eigenvector-optimisation
 modified Broyden-mixing scheme, WC =      100.0
 initial mixing is a Kerker type mixing with AMIX =  0.4000 and BMIX =      1.0000
 Hartree-type preconditioning will be used
 using additional bands            7
 reciprocal scheme for non local part
 use partial core corrections
 calculate Harris-corrections to forces 
   (improved forces if not selfconsistent)
 use of overlap-Matrix (Vanderbilt PP)
 Gauss-broadening in eV      SIGMA  =   0.10


--------------------------------------------------------------------------------------------------------


  energy-cutoff  :      520.00
  volume of cell :       34.50
      direct lattice vectors                 reciprocal lattice vectors
     2.447541913  0.000000000  0.000000000     0.408573187  0.235889840  0.000000000
    -1.223770957  2.119633474  0.000000000     0.000000000  0.471779679  0.000000000
     0.000000000  0.000000000  6.650791927     0.000000000  0.000000000  0.150358034

  length of vectors
     2.447541913  2.447541913  6.650791927     0.471779679  0.471779679  0.150358034


 
 k-points in units of 2pi/SCALE and weight: KPOINTS created by Atomic Simulation Env
   0.00000000  0.00000000  0.00000000       0.001
   0.02723821  0.01572599  0.00000000       0.009
   0.05447642  0.03145198  0.00000000       0.009
   0.08171464  0.04717797  0.00000000       0.009
   0.10895285  0.06290396  0.00000000       0.009
   0.13619106  0.07862995  0.00000000       0.009
   0.16342927  0.09435594  0.00000000       0.009
   0.19066749  0.11008193  0.00000000       0.009
   0.02723821  0.04717797  0.00000000       0.009
   0.05447642  0.06290396  0.00000000       0.018
   0.08171464  0.07862995  0.00000000       0.018
   0.10895285  0.09435594  0.00000000       0.018
   0.13619106  0.11008193  0.00000000       0.018
   0.16342927  0.12580791  0.00000000       0.018
   0.19066749  0.14153390  0.00000000       0.009
   0.05447642  0.09435594  0.00000000       0.009
   0.08171464  0.11008193  0.00000000       0.018
   0.10895285  0.12580791  0.00000000       0.018
   0.13619106  0.14153390  0.00000000       0.018
   0.16342927  0.15725989  0.00000000       0.018
   0.08171464  0.14153390  0.00000000       0.009
   0.10895285  0.15725989  0.00000000       0.018
   0.13619106  0.17298588  0.00000000       0.018
   0.16342927  0.18871187  0.00000000       0.009
   0.10895285  0.18871187  0.00000000       0.009
   0.13619106  0.20443786  0.00000000       0.018
   0.13619106  0.23588984  0.00000000       0.003
   0.00000000  0.00000000  0.05011934       0.003
   0.02723821  0.01572599  0.05011934       0.018
   0.05447642  0.03145198  0.05011934       0.018
   0.08171464  0.04717797  0.05011934       0.018
   0.10895285  0.06290396  0.05011934       0.018
   0.13619106  0.07862995  0.05011934       0.018
   0.16342927  0.09435594  0.05011934       0.018
   0.19066749  0.11008193  0.05011934       0.018
   0.02723821  0.04717797  0.05011934       0.018
   0.05447642  0.06290396  0.05011934       0.036
   0.08171464  0.07862995  0.05011934       0.036
   0.10895285  0.09435594  0.05011934       0.036
   0.13619106  0.11008193  0.05011934       0.036
   0.16342927  0.12580791  0.05011934       0.036
   0.19066749  0.14153390  0.05011934       0.018
   0.05447642  0.09435594  0.05011934       0.018
   0.08171464  0.11008193  0.05011934       0.036
   0.10895285  0.12580791  0.05011934       0.036
   0.13619106  0.14153390  0.05011934       0.036
   0.16342927  0.15725989  0.05011934       0.036
   0.08171464  0.14153390  0.05011934       0.018
   0.10895285  0.15725989  0.05011934       0.036
   0.13619106  0.17298588  0.05011934       0.036
   0.16342927  0.18871187  0.05011934       0.018
   0.10895285  0.18871187  0.05011934       0.018
   0.13619106  0.20443786  0.05011934       0.036
   0.13619106  0.23588984  0.05011934       0.006
 
 k-points in reciprocal lattice and weights: KPOINTS created by Atomic Simulation Env
   0.00000000  0.00000000  0.00000000       0.001
   0.06666667  0.00000000  0.00000000       0.009
   0.13333333  0.00000000  0.00000000       0.009
   0.20000000  0.00000000  0.00000000       0.009
   0.26666667  0.00000000  0.00000000       0.009
   0.33333333 -0.00000000  0.00000000       0.009
   0.40000000  0.00000000  0.00000000       0.009
   0.46666667  0.00000000  0.00000000       0.009
   0.06666667  0.06666667  0.00000000       0.009
   0.13333333  0.06666667  0.00000000       0.018
   0.20000000  0.06666667  0.00000000       0.018
   0.26666667  0.06666667  0.00000000       0.018
   0.33333333  0.06666667  0.00000000       0.018
   0.40000000  0.06666667  0.00000000       0.018
   0.46666667  0.06666667  0.00000000       0.009
   0.13333333  0.13333333  0.00000000       0.009
   0.20000000  0.13333333  0.00000000       0.018
   0.26666667  0.13333333  0.00000000       0.018
   0.33333333  0.13333333  0.00000000       0.018
   0.40000000  0.13333333  0.00000000       0.018
   0.20000000  0.20000000  0.00000000       0.009
   0.26666667  0.20000000  0.00000000       0.018
   0.33333333  0.20000000  0.00000000       0.018
   0.40000000  0.20000000  0.00000000       0.009
   0.26666667  0.26666667  0.00000000       0.009
   0.33333333  0.26666667  0.00000000       0.018
   0.33333333  0.33333333  0.00000000       0.003
   0.00000000  0.00000000  0.33333333       0.003
   0.06666667  0.00000000  0.33333333       0.018
   0.13333333  0.00000000  0.33333333       0.018
   0.20000000  0.00000000  0.33333333       0.018
   0.26666667  0.00000000  0.33333333       0.018
   0.33333333 -0.00000000  0.33333333       0.018
   0.40000000  0.00000000  0.33333333       0.018
   0.46666667  0.00000000  0.33333333       0.018
   0.06666667  0.06666667  0.33333333       0.018
   0.13333333  0.06666667  0.33333333       0.036
   0.20000000  0.06666667  0.33333333       0.036
   0.26666667  0.06666667  0.33333333       0.036
   0.33333333  0.06666667  0.33333333       0.036
   0.40000000  0.06666667  0.33333333       0.036
   0.46666667  0.06666667  0.33333333       0.018
   0.13333333  0.13333333  0.33333333       0.018
   0.20000000  0.13333333  0.33333333       0.036
   0.26666667  0.13333333  0.33333333       0.036
   0.33333333  0.13333333  0.33333333       0.036
   0.40000000  0.13333333  0.33333333       0.036
   0.20000000  0.20000000  0.33333333       0.018
   0.26666667  0.20000000  0.33333333       0.036
   0.33333333  0.20000000  0.33333333       0.036
   0.40000000  0.20000000  0.33333333       0.018
   0.26666667  0.26666667  0.33333333       0.018
   0.33333333  0.26666667  0.33333333       0.036
   0.33333333  0.33333333  0.33333333       0.006
 
 position of ions in fractional coordinates (direct lattice) 
   0.00000000  0.00000000  0.00000000
   0.33333333  0.66666667  0.00000000
   0.33333333  0.66666667  0.50000000
   0.66666667  0.33333333  0.50000000
 
 position of ions in cartesian coordinates  (Angst):
   0.00000000  0.00000000  0.00000000
   0.00000000  1.41308898  0.00000000
   0.00000000  1.41308898  3.32539596
   1.22377096  0.70654449  3.32539596
 


--------------------------------------------------------------------------------------------------------


 k-point  1 :   0.0000 0.0000 0.0000  plane waves:     931
 k-point  2 :   0.0667 0.0000 0.0000  plane waves:     940
 k-point  3 :   0.1333 0.0000 0.0000  plane waves:     938
 k-point  4 :   0.2000 0.0000 0.0000  plane waves:     942
 k-point  5 :   0.2667 0.0000 0.0000  plane waves:     944
 k-point  6 :   0.3333-0.0000 0.0000  plane waves:     930
 k-point  7 :   0.4000 0.0000 0.0000  plane waves:     930
 k-point  8 :   0.4667 0.0000 0.0000  plane waves:     916
 k-point  9 :   0.0667 0.0667 0.0000  plane waves:     945
 k-point 10 :   0.1333 0.0667 0.0000  plane waves:     937
 k-point 11 :   0.2000 0.0667 0.0000  plane waves:     938
 k-point 12 :   0.2667 0.0667 0.0000  plane waves:     940
 k-point 13 :   0.3333 0.0667 0.0000  plane waves:     932
 k-point 14 :   0.4000 0.0667 0.0000  plane waves:     928
 k-point 15 :   0.4667 0.0667 0.0000  plane waves:     922
 k-point 16 :   0.1333 0.1333 0.0000  plane waves:     937
 k-point 17 :   0.2000 0.1333 0.0000  plane waves:     933
 k-point 18 :   0.2667 0.1333 0.0000  plane waves:     928
 k-point 19 :   0.3333 0.1333 0.0000  plane waves:     925
 k-point 20 :   0.4000 0.1333 0.0000  plane waves:     925
 k-point 21 :   0.2000 0.2000 0.0000  plane waves:     927
 k-point 22 :   0.2667 0.2000 0.0000  plane waves:     919
 k-point 23 :   0.3333 0.2000 0.0000  plane waves:     926
 k-point 24 :   0.4000 0.2000 0.0000  plane waves:     920
 k-point 25 :   0.2667 0.2667 0.0000  plane waves:     915
 k-point 26 :   0.3333 0.2667 0.0000  plane waves:     920
 k-point 27 :   0.3333 0.3333 0.0000  plane waves:     924
 k-point 28 :   0.0000 0.0000 0.3333  plane waves:     931
 k-point 29 :   0.0667 0.0000 0.3333  plane waves:     934
 k-point 30 :   0.1333 0.0000 0.3333  plane waves:     943
 k-point 31 :   0.2000 0.0000 0.3333  plane waves:     949
 k-point 32 :   0.2667 0.0000 0.3333  plane waves:     943
 k-point 33 :   0.3333-0.0000 0.3333  plane waves:     933
 k-point 34 :   0.4000 0.0000 0.3333  plane waves:     921
 k-point 35 :   0.4667 0.0000 0.3333  plane waves:     925
 k-point 36 :   0.0667 0.0667 0.3333  plane waves:     942
 k-point 37 :   0.1333 0.0667 0.3333  plane waves:     945
 k-point 38 :   0.2000 0.0667 0.3333  plane waves:     944
 k-point 39 :   0.2667 0.0667 0.3333  plane waves:     935
 k-point 40 :   0.3333 0.0667 0.3333  plane waves:     927
 k-point 41 :   0.4000 0.0667 0.3333  plane waves:     918
 k-point 42 :   0.4667 0.0667 0.3333  plane waves:     921
 k-point 43 :   0.1333 0.1333 0.3333  plane waves:     940
 k-point 44 :   0.2000 0.1333 0.3333  plane waves:     936
 k-point 45 :   0.2667 0.1333 0.3333  plane waves:     925
 k-point 46 :   0.3333 0.1333 0.3333  plane waves:     918
 k-point 47 :   0.4000 0.1333 0.3333  plane waves:     921
 k-point 48 :   0.2000 0.2000 0.3333  plane waves:     929
 k-point 49 :   0.2667 0.2000 0.3333  plane waves:     921
 k-point 50 :   0.3333 0.2000 0.3333  plane waves:     919
 k-point 51 :   0.4000 0.2000 0.3333  plane waves:     920
 k-point 52 :   0.2667 0.2667 0.3333  plane waves:     916
 k-point 53 :   0.3333 0.2667 0.3333  plane waves:     921
 k-point 54 :   0.3333 0.3333 0.3333  plane waves:     921

 maximum and minimum number of plane-waves per node :       247      220

 maximum number of plane-waves:       949
 maximum index in each direction: 
   IXMAX=    4   IYMAX=    4   IZMAX=   12
   IXMIN=   -5   IYMIN=   -4   IZMIN=  -12


 parallel 3D FFT for wavefunctions:
    minimum data exchange during FFTs selected (reduces bandwidth)
 parallel 3D FFT for charge:
    minimum data exchange during FFTs selected (reduces bandwidth)


 total amount of memory used by VASP MPI-rank0    32369. kBytes
=======================================================================

   base      :      30000. kBytes
   nonl-proj :        827. kBytes
   fftplans  :        373. kBytes
   grid      :        531. kBytes
   one-center:          3. kBytes
   wavefun   :        635. kBytes
 
     INWAV:  cpu time    0.0000: real time    0.0000
 Broyden mixing: mesh for mixing (old mesh)
   NGX =  9   NGY =  9   NGZ = 25
  (NGX  = 36   NGY  = 36   NGZ  =100)
  gives a total of   2025 points

 initial charge density was supplied:
 charge density of overlapping atoms calculated
 number of electron      16.0000000 magnetization 
 keeping initial charge density in first step


--------------------------------------------------------------------------------------------------------


 Maximum index for augmentation-charges          345 (set IRDMAX)


--------------------------------------------------------------------------------------------------------


 First call to EWALD:  gamma=   0.544
 Maximum number of real-space cells 4x 4x 2
 Maximum number of reciprocal cells 2x 2x 5

    FEWALD:  cpu time    0.0014: real time    0.0014


--------------------------------------- Iteration      1(   1)  ---------------------------------------


    POTLOK:  cpu time    0.0025: real time    0.0045
    SETDIJ:  cpu time    0.0011: real time    0.0011
     EDDAV:  cpu time    0.2228: real time    0.2232
       DOS:  cpu time    0.0006: real time    0.0005
    --------------------------------------------
      LOOP:  cpu time    0.2271: real time    0.2294

 eigenvalue-minimisations  :  1620
 total energy-change (2. order) : 0.2427442E+02  (-0.8478655E+03)
 number of electron      16.0000000 magnetization 
 augmentation part       16.0000000 magnetization 

 Free energy of the ion-electron system (eV)
  ---------------------------------------------------
  alpha Z        PSCENC =        35.50115494
  Ewald energy   TEWEN  =      -465.02100188
  -Hartree energ DENC   =      -145.51174634
  -exchange      EXHF   =         0.00000000
  -V(xc)+E(xc)   XCENC  =        53.31261517
  PAW double counting   =       432.24337526     -434.26865883
  entropy T*S    EENTRO =        -0.00342140
  eigenvalues    EBANDS =       -38.69386228
  atomic energy  EATOM  =       586.71596219
  Solvation  Ediel_sol  =         0.00000000
  ---------------------------------------------------
  free energy    TOTEN  =        24.27441682 eV

  energy without entropy =       24.27783822  energy(sigma->0) =       24.27612752


--------------------------------------------------------------------------------------------------------




--------------------------------------- Iteration      1(   2)  ---------------------------------------


     EDDAV:  cpu time    0.2532: real time    0.2540
       DOS:  cpu time    0.0005: real time    0.0005
    --------------------------------------------
      LOOP:  cpu time    0.2537: real time    0.2545

 eigenvalue-minimisations  :  2170
 total energy-change (2. order) :-0.6507091E+02  (-0.6088306E+02)
 number of electron      16.0000000 magnetization 
 augmentation part       16.0000000 magnetization 

 Free energy of the ion-electron system (eV)
  ---------------------------------------------------
  alpha Z        PSCENC =        35.50115494
  Ewald energy   TEWEN  =      -465.02100188
  -Hartree energ DENC   =      -145.51174634
  -exchange      EXHF   =         0.00000000
  -V(xc)+E(xc)   XCENC  =        53.31261517
  PAW double counting   =       432.24337526     -434.26865883
  entropy T*S    EENTRO =        -0.00026920
  eigenvalues    EBANDS =      -103.76791954
  atomic energy  EATOM  =       586.71596219
  Solvation  Ediel_sol  =         0.00000000
  ---------------------------------------------------
  free energy    TOTEN  =       -40.79648824 eV

  energy without entropy =      -40.79621904  energy(sigma->0) =      -40.79635364


--------------------------------------------------------------------------------------------------------




--------------------------------------- Iteration      1(   3)  ---------------------------------------


     EDDAV:  cpu time    0.2439: real time    0.2446
       DOS:  cpu time    0.0006: real time    0.0005
    --------------------------------------------
      LOOP:  cpu time    0.2445: real time    0.2451

 eigenvalue-minimisations  :  2110
 total energy-change (2. order) :-0.2491784E+01  (-0.2481646E+01)
 number of electron      16.0000000 magnetization 
 augmentation part       16.0000000 magnetization 

 Free energy of the ion-electron system (eV)
  ---------------------------------------------------
  alpha Z        PSCENC =        35.50115494
  Ewald energy   TEWEN  =      -465.02100188
  -Hartree energ DENC   =      -145.51174634
  -exchange      EXHF   =         0.00000000
  -V(xc)+E(xc)   XCENC  =        53.31261517
  PAW double counting   =       432.24337526     -434.26865883
  entropy T*S    EENTRO =        -0.00099832
  eigenvalues    EBANDS =      -106.25897433
  atomic energy  EATOM  =       586.71596219
  Solvation  Ediel_sol  =         0.00000000
  ---------------------------------------------------
  free energy    TOTEN  =       -43.28827214 eV

  energy without entropy =      -43.28727383  energy(sigma->0) =      -43.28777298


--------------------------------------------------------------------------------------------------------




--------------------------------------- Iteration      1(   4)  ---------------------------------------


     EDDAV:  cpu time    0.2523: real time    0.2524
       DOS:  cpu time    0.0005: real time    0.0005
    --------------------------------------------
      LOOP:  cpu time    0.2528: real time    0.2529

 eigenvalue-minimisations  :  2185
 total energy-change (2. order) :-0.2373901E-01  (-0.2373079E-01)
 number of electron      16.0000000 magnetization 
 augmentation part       16.0000000 magnetization 

 Free energy of the ion-electron system (eV)
  ---------------------------------------------------
  alpha Z        PSCENC =        35.50115494
  Ewald energy   TEWEN  =      -465.02100188
  -Hartree energ DENC   =      -145.51174634
  -exchange      EXHF   =         0.00000000
  -V(xc)+E(xc)   XCENC  =        53.31261517
  PAW double counting   =       432.24337526     -434.26865883
  entropy T*S    EENTRO =        -0.00099897
  eigenvalues    EBANDS =      -106.28271269
  atomic energy  EATOM  =       586.71596219
  Solvation  Ediel_sol  =         0.00000000
  ---------------------------------------------------
  free energy    TOTEN  =       -43.31201116 eV

  energy without entropy =      -43.31101218  energy(sigma->0) =      -43.31151167


--------------------------------------------------------------------------------------------------------




--------------------------------------- Iteration      1(   5)  ---------------------------------------


     EDDAV:  cpu time    0.2562: real time    0.2563
       DOS:  cpu time    0.0005: real time    0.0005
    CHARGE:  cpu time    0.0100: real time    0.0100
    MIXING:  cpu time    0.0006: real time    0.0005
    --------------------------------------------
      LOOP:  cpu time    0.2673: real time    0.2672

 eigenvalue-minimisations  :  2230
 total energy-change (2. order) :-0.2403570E-03  (-0.2403432E-03)
 number of electron      15.9999994 magnetization 
 augmentation part        0.5010076 magnetization 

 Broyden mixing:
  rms(total) = 0.94028E+00    rms(broyden)= 0.94017E+00
  rms(prec ) = 0.14110E+01
  weight for this iteration     100.00

 Free energy of the ion-electron system (eV)
  ---------------------------------------------------
  alpha Z        PSCENC =        35.50115494
  Ewald energy   TEWEN  =      -465.02100188
  -Hartree energ DENC   =      -145.51174634
  -exchange      EXHF   =         0.00000000
  -V(xc)+E(xc)   XCENC  =        53.31261517
  PAW double counting   =       432.24337526     -434.26865883
  entropy T*S    EENTRO =        -0.00099899
  eigenvalues    EBANDS =      -106.28295302
  atomic energy  EATOM  =       586.71596219
  Solvation  Ediel_sol  =         0.00000000
  ---------------------------------------------------
  free energy    TOTEN  =       -43.31225151 eV

  energy without entropy =      -43.31125252  energy(sigma->0) =      -43.31175202


--------------------------------------------------------------------------------------------------------




--------------------------------------- Iteration      1(   6)  ---------------------------------------


    POTLOK:  cpu time    0.0012: real time    0.0013
    SETDIJ:  cpu time    0.0009: real time    0.0008
     EDDAV:  cpu time    0.2236: real time    0.2237
       DOS:  cpu time    0.0006: real time    0.0005
    CHARGE:  cpu time    0.0099: real time    0.0099
    MIXING:  cpu time    0.0002: real time    0.0003
    --------------------------------------------
      LOOP:  cpu time    0.2365: real time    0.2365

 eigenvalue-minimisations  :  1900
 total energy-change (2. order) : 0.2194561E+01  (-0.1760696E+00)
 number of electron      15.9999994 magnetization 
 augmentation part        0.4781003 magnetization 

 Broyden mixing:
  rms(total) = 0.53442E+00    rms(broyden)= 0.53441E+00
  rms(prec ) = 0.74937E+00
  weight for this iteration     100.00

 eigenvalues of (default mixing * dielectric matrix)
  average eigenvalue GAMMA=   2.1440
  2.1440

 Free energy of the ion-electron system (eV)
  ---------------------------------------------------
  alpha Z        PSCENC =        35.50115494
  Ewald energy   TEWEN  =      -465.02100188
  -Hartree energ DENC   =      -162.83710908
  -exchange      EXHF   =         0.00000000
  -V(xc)+E(xc)   XCENC  =        54.44886592
  PAW double counting   =       817.20870126     -819.63822268
  entropy T*S    EENTRO =        -0.00099299
  eigenvalues    EBANDS =       -87.49504816
  atomic energy  EATOM  =       586.71596219
  Solvation  Ediel_sol  =         0.00000000
  ---------------------------------------------------
  free energy    TOTEN  =       -41.11769048 eV

  energy without entropy =      -41.11669749  energy(sigma->0) =      -41.11719398


--------------------------------------------------------------------------------------------------------




--------------------------------------- Iteration      1(   7)  ---------------------------------------


    POTLOK:  cpu time    0.0012: real time    0.0013
    SETDIJ:  cpu time    0.0009: real time    0.0008
     EDDAV:  cpu time    0.2272: real time    0.2276
       DOS:  cpu time    0.0005: real time    0.0005
    CHARGE:  cpu time    0.0100: real time    0.0100
    MIXING:  cpu time    0.0003: real time    0.0003
    --------------------------------------------
      LOOP:  cpu time    0.2402: real time    0.2405

 eigenvalue-minimisations  :  1880
 total energy-change (2. order) : 0.6721487E+00  (-0.1928035E+00)
 number of electron      15.9999994 magnetization 
 augmentation part        0.4535291 magnetization 

 Broyden mixing:
  rms(total) = 0.14512E+00    rms(broyden)= 0.14508E+00
  rms(prec ) = 0.15661E+00
  weight for this iteration     100.00

 eigenvalues of (default mixing * dielectric matrix)
  average eigenvalue GAMMA=   2.3644
  2.1568  2.5720

 Free energy of the ion-electron system (eV)
  ---------------------------------------------------
  alpha Z        PSCENC =        35.50115494
  Ewald energy   TEWEN  =      -465.02100188
  -Hartree energ DENC   =      -181.72385887
  -exchange      EXHF   =         0.00000000
  -V(xc)+E(xc)   XCENC  =        55.74658714
  PAW double counting   =      1496.71104843    -1499.47663271
  entropy T*S    EENTRO =        -0.00098126
  eigenvalues    EBANDS =       -68.89781978
  atomic energy  EATOM  =       586.71596219
  Solvation  Ediel_sol  =         0.00000000
  ---------------------------------------------------
  free energy    TOTEN  =       -40.44554179 eV

  energy without entropy =      -40.44456053  energy(sigma->0) =      -40.44505116


--------------------------------------------------------------------------------------------------------




--------------------------------------- Iteration      1(   8)  ---------------------------------------


    POTLOK:  cpu time    0.0013: real time    0.0016
    SETDIJ:  cpu time    0.0009: real time    0.0009
     EDDAV:  cpu time    0.2304: real time    0.2305
       DOS:  cpu time    0.0005: real time    0.0005
    CHARGE:  cpu time    0.0099: real time    0.0099
    MIXING:  cpu time    0.0002: real time    0.0002
    --------------------------------------------
      LOOP:  cpu time    0.2433: real time    0.2436

 eigenvalue-minimisations  :  1965
 total energy-change (2. order) :-0.2268625E-02  (-0.8886228E-02)
 number of electron      15.9999994 magnetization 
 augmentation part        0.4530990 magnetization 

 Broyden mixing:
  rms(total) = 0.31022E-01    rms(broyden)= 0.31018E-01
  rms(prec ) = 0.41005E-01
  weight for this iteration     100.00

 eigenvalues of (default mixing * dielectric matrix)
  average eigenvalue GAMMA=   1.7137
  2.3709  2.0333  0.7369

 Free energy of the ion-electron system (eV)
  ---------------------------------------------------
  alpha Z        PSCENC =        35.50115494
  Ewald energy   TEWEN  =      -465.02100188
  -Hartree energ DENC   =      -180.05964699
  -exchange      EXHF   =         0.00000000
  -V(xc)+E(xc)   XCENC  =        55.64308014
  PAW double counting   =      1738.53041152    -1741.14841257
  entropy T*S    EENTRO =        -0.00098348
  eigenvalues    EBANDS =       -70.60837428
  atomic energy  EATOM  =       586.71596219
  Solvation  Ediel_sol  =         0.00000000
  ---------------------------------------------------
  free energy    TOTEN  =       -40.44781041 eV

  energy without entropy =      -40.44682694  energy(sigma->0) =      -40.44731868


--------------------------------------------------------------------------------------------------------




--------------------------------------- Iteration      1(   9)  ---------------------------------------


    POTLOK:  cpu time    0.0013: real time    0.0013
    SETDIJ:  cpu time    0.0008: real time    0.0008
     EDDAV:  cpu time    0.2412: real time    0.2413
       DOS:  cpu time    0.0005: real time    0.0006
    CHARGE:  cpu time    0.0099: real time    0.0099
    MIXING:  cpu time    0.0002: real time    0.0002
    --------------------------------------------
      LOOP:  cpu time    0.2540: real time    0.2540

 eigenvalue-minimisations  :  2080
 total energy-change (2. order) : 0.1765007E-02  (-0.3111398E-03)
 number of electron      15.9999994 magnetization 
 augmentation part        0.4522791 magnetization 

 Broyden mixing:
  rms(total) = 0.10249E-01    rms(broyden)= 0.10248E-01
  rms(prec ) = 0.12392E-01
  weight for this iteration     100.00

 eigenvalues of (default mixing * dielectric matrix)
  average eigenvalue GAMMA=   1.9668
  1.1039  2.4846  2.4846  1.7940

 Free energy of the ion-electron system (eV)
  ---------------------------------------------------
  alpha Z        PSCENC =        35.50115494
  Ewald energy   TEWEN  =      -465.02100188
  -Hartree energ DENC   =      -180.80271613
  -exchange      EXHF   =         0.00000000
  -V(xc)+E(xc)   XCENC  =        55.69393359
  PAW double counting   =      1721.38468123    -1724.02250942
  entropy T*S    EENTRO =        -0.00098286
  eigenvalues    EBANDS =       -69.89456706
  atomic energy  EATOM  =       586.71596219
  Solvation  Ediel_sol  =         0.00000000
  ---------------------------------------------------
  free energy    TOTEN  =       -40.44604541 eV

  energy without entropy =      -40.44506255  energy(sigma->0) =      -40.44555398


--------------------------------------------------------------------------------------------------------




--------------------------------------- Iteration      1(  10)  ---------------------------------------


    POTLOK:  cpu time    0.0014: real time    0.0013
    SETDIJ:  cpu time    0.0008: real time    0.0008
     EDDAV:  cpu time    0.2523: real time    0.2523
       DOS:  cpu time    0.0005: real time    0.0005
    CHARGE:  cpu time    0.0098: real time    0.0099
    MIXING:  cpu time    0.0002: real time    0.0003
    --------------------------------------------
      LOOP:  cpu time    0.2650: real time    0.2651

 eigenvalue-minimisations  :  2195
 total energy-change (2. order) : 0.4798534E-04  (-0.3945796E-04)
 number of electron      15.9999994 magnetization 
 augmentation part        0.4519248 magnetization 

 Broyden mixing:
  rms(total) = 0.42466E-02    rms(broyden)= 0.42459E-02
  rms(prec ) = 0.46187E-02
  weight for this iteration     100.00

 eigenvalues of (default mixing * dielectric matrix)
  average eigenvalue GAMMA=   1.7787
  2.6328  2.6153  1.8430  1.0489  0.7534

 Free energy of the ion-electron system (eV)
  ---------------------------------------------------
  alpha Z        PSCENC =        35.50115494
  Ewald energy   TEWEN  =      -465.02100188
  -Hartree energ DENC   =      -181.06074045
  -exchange      EXHF   =         0.00000000
  -V(xc)+E(xc)   XCENC  =        55.71294152
  PAW double counting   =      1705.92616693    -1708.56449132
  entropy T*S    EENTRO =        -0.00098269
  eigenvalues    EBANDS =       -69.65500667
  atomic energy  EATOM  =       586.71596219
  Solvation  Ediel_sol  =         0.00000000
  ---------------------------------------------------
  free energy    TOTEN  =       -40.44599742 eV

  energy without entropy =      -40.44501474  energy(sigma->0) =      -40.44550608


--------------------------------------------------------------------------------------------------------




--------------------------------------- Iteration      1(  11)  ---------------------------------------


    POTLOK:  cpu time    0.0012: real time    0.0013
    SETDIJ:  cpu time    0.0008: real time    0.0008
     EDDAV:  cpu time    0.2409: real time    0.2409
       DOS:  cpu time    0.0006: real time    0.0005
    CHARGE:  cpu time    0.0099: real time    0.0099
    MIXING:  cpu time    0.0003: real time    0.0003
    --------------------------------------------
      LOOP:  cpu time    0.2537: real time    0.2537

 eigenvalue-minimisations  :  2070
 total energy-change (2. order) : 0.2095863E-05  (-0.1195047E-05)
 number of electron      15.9999994 magnetization 
 augmentation part        0.4519132 magnetization 

 Broyden mixing:
  rms(total) = 0.14887E-02    rms(broyden)= 0.14887E-02
  rms(prec ) = 0.15472E-02
  weight for this iteration     100.00

 eigenvalues of (default mixing * dielectric matrix)
  average eigenvalue GAMMA=   1.6408
  2.7066  2.4397  1.8486  1.0081  0.9209  0.9209

 Free energy of the ion-electron system (eV)
  ---------------------------------------------------
  alpha Z        PSCENC =        35.50115494
  Ewald energy   TEWEN  =      -465.02100188
  -Hartree energ DENC   =      -181.07612738
  -exchange      EXHF   =         0.00000000
  -V(xc)+E(xc)   XCENC  =        55.71445138
  PAW double counting   =      1710.54398435    -1713.17863599
  entropy T*S    EENTRO =        -0.00098271
  eigenvalues    EBANDS =       -69.64480024
  atomic energy  EATOM  =       586.71596219
  Solvation  Ediel_sol  =         0.00000000
  ---------------------------------------------------
  free energy    TOTEN  =       -40.44599533 eV

  energy without entropy =      -40.44501262  energy(sigma->0) =      -40.44550397


--------------------------------------------------------------------------------------------------------




--------------------------------------- Iteration      1(  12)  ---------------------------------------


    POTLOK:  cpu time    0.0013: real time    0.0013
    SETDIJ:  cpu time    0.0009: real time    0.0008
     EDDAV:  cpu time    0.2531: real time    0.2531
       DOS:  cpu time    0.0005: real time    0.0005
    CHARGE:  cpu time    0.0099: real time    0.0099
    MIXING:  cpu time    0.0003: real time    0.0003
    --------------------------------------------
      LOOP:  cpu time    0.2659: real time    0.2659

 eigenvalue-minimisations  :  2205
 total energy-change (2. order) : 0.2788786E-06  (-0.7127225E-07)
 number of electron      15.9999994 magnetization 
 augmentation part        0.4519161 magnetization 

 Broyden mixing:
  rms(total) = 0.51355E-03    rms(broyden)= 0.51354E-03
  rms(prec ) = 0.54105E-03
  weight for this iteration     100.00

 eigenvalues of (default mixing * dielectric matrix)
  average eigenvalue GAMMA=   1.6548
  2.7636  2.3248  1.8185  1.6438  0.9325  0.9325  1.1682

 Free energy of the ion-electron system (eV)
  ---------------------------------------------------
  alpha Z        PSCENC =        35.50115494
  Ewald energy   TEWEN  =      -465.02100188
  -Hartree energ DENC   =      -181.07397062
  -exchange      EXHF   =         0.00000000
  -V(xc)+E(xc)   XCENC  =        55.71428447
  PAW double counting   =      1711.99052067    -1714.62473095
  entropy T*S    EENTRO =        -0.00098271
  eigenvalues    EBANDS =       -69.64723116
  atomic energy  EATOM  =       586.71596219
  Solvation  Ediel_sol  =         0.00000000
  ---------------------------------------------------
  free energy    TOTEN  =       -40.44599505 eV

  energy without entropy =      -40.44501234  energy(sigma->0) =      -40.44550369


--------------------------------------------------------------------------------------------------------




--------------------------------------- Iteration      1(  13)  ---------------------------------------


    POTLOK:  cpu time    0.0012: real time    0.0013
    SETDIJ:  cpu time    0.0009: real time    0.0008
     EDDAV:  cpu time    0.2376: real time    0.2376
       DOS:  cpu time    0.0005: real time    0.0005
    CHARGE:  cpu time    0.0099: real time    0.0099
    MIXING:  cpu time    0.0003: real time    0.0003
    --------------------------------------------
      LOOP:  cpu time    0.2504: real time    0.2504

 eigenvalue-minimisations  :  2060
 total energy-change (2. order) :-0.6166147E-08  (-0.1234761E-07)
 number of electron      15.9999994 magnetization 
 augmentation part        0.4519211 magnetization 

 Broyden mixing:
  rms(total) = 0.77276E-04    rms(broyden)= 0.77265E-04
  rms(prec ) = 0.86280E-04
  weight for this iteration     100.00

 eigenvalues of (default mixing * dielectric matrix)
  average eigenvalue GAMMA=   1.6986
  2.8189  2.5420  2.3657  1.8300  1.0837  1.0837  0.9325  0.9325

 Free energy of the ion-electron system (eV)
  ---------------------------------------------------
  alpha Z        PSCENC =        35.50115494
  Ewald energy   TEWEN  =      -465.02100188
  -Hartree energ DENC   =      -181.07091587
  -exchange      EXHF   =         0.00000000
  -V(xc)+E(xc)   XCENC  =        55.71404530
  PAW double counting   =      1712.49692128    -1715.13098495
  entropy T*S    EENTRO =        -0.00098272
  eigenvalues    EBANDS =       -69.65019335
  atomic energy  EATOM  =       586.71596219
  Solvation  Ediel_sol  =         0.00000000
  ---------------------------------------------------
  free energy    TOTEN  =       -40.44599505 eV

  energy without entropy =      -40.44501234  energy(sigma->0) =      -40.44550370


--------------------------------------------------------------------------------------------------------




--------------------------------------- Iteration      1(  14)  ---------------------------------------


    POTLOK:  cpu time    0.0012: real time    0.0012
    SETDIJ:  cpu time    0.0008: real time    0.0008
     EDDAV:  cpu time    0.1972: real time    0.1972
       DOS:  cpu time    0.0005: real time    0.0005
    --------------------------------------------
      LOOP:  cpu time    0.1998: real time    0.1998

 eigenvalue-minimisations  :  1545
 total energy-change (2. order) :-0.6166374E-09  (-0.6315301E-09)
 number of electron      15.9999994 magnetization 
 augmentation part        0.4519211 magnetization 

 Free energy of the ion-electron system (eV)
  ---------------------------------------------------
  alpha Z        PSCENC =        35.50115494
  Ewald energy   TEWEN  =      -465.02100188
  -Hartree energ DENC   =      -181.07157366
  -exchange      EXHF   =         0.00000000
  -V(xc)+E(xc)   XCENC  =        55.71406859
  PAW double counting   =      1712.55504924    -1715.18917052
  entropy T*S    EENTRO =        -0.00098272
  eigenvalues    EBANDS =       -69.64950124
  atomic energy  EATOM  =       586.71596219
  Solvation  Ediel_sol  =         0.00000000
  ---------------------------------------------------
  free energy    TOTEN  =       -40.44599505 eV

  energy without entropy =      -40.44501234  energy(sigma->0) =      -40.44550370


--------------------------------------------------------------------------------------------------------




 average (electrostatic) potential at core
  the test charge radii are     0.6991
  (the norm of the test charge is              1.0000)
       1 -54.7241       2 -54.7582       3 -54.7582       4 -54.7241
 
 
 
 E-fermi :   4.7483     XC(G=0): -10.8547     alpha+bet :-11.8174


 k-point     1 :       0.0000    0.0000    0.0000
  band No.  band energies     occupation 
      1     -14.8504      2.00000
      2     -14.5103      2.00000
      3      -4.0048      2.00000
      4      -1.8676      2.00000
      5       1.7641      2.00000
      6       1.7641      2.00000
      7       1.7837      2.00000
      8       1.7837      2.00000
      9       8.6439      0.00000
     10      13.1791      0.00000
     11      13.1791      0.00000
     12      13.2363      0.00000
     13      13.2363      0.00000
     14      15.0429      0.00000
     15      16.2794      0.00000

 k-point     2 :       0.0667    0.0000    0.0000
  band No.  band energies     occupation 
      1     -14.7436      2.00000
      2     -14.4057      2.00000
      3      -3.8732      2.00000
      4      -1.7449      2.00000
      5       1.3415      2.00000
      6       1.3725      2.00000
      7       1.5333      2.00000
      8       1.5607      2.00000
      9       8.7728      0.00000
     10      13.2225      0.00000
     11      13.3011      0.00000
     12      13.6375      0.00000
     13      13.6943      0.00000
     14      15.1394      0.00000
     15      15.8969      0.00000

 k-point     3 :       0.1333    0.0000    0.0000
  band No.  band energies     occupation 
      1     -14.4235      2.00000
      2     -14.0923      2.00000
      3      -3.4801      2.00000
      4      -1.3794      2.00000
      5       0.2166      2.00000
      6       0.2719      2.00000
      7       0.9532      2.00000
      8       0.9922      2.00000
      9       9.1609      0.00000
     10      13.2330      0.00000
     11      13.3804      0.00000
     12      14.8048      0.00000
     13      14.8985      0.00000
     14      14.9537      0.00000
     15      15.1340      0.00000

 k-point     4 :       0.2000    0.0000    0.0000
  band No.  band energies     occupation 
      1     -13.8927      2.00000
      2     -13.5725      2.00000
      3      -2.8311      2.00000
      4      -1.3335      2.00000
      5      -1.2482      2.00000
      6      -0.7801      2.00000
      7       0.2319      2.00000
      8       0.2793      2.00000
      9       9.8085      0.00000
     10      13.0893      0.00000
     11      13.2005      0.00000
     12      13.3332      0.00000
     13      13.7163      0.00000
     14      15.9222      0.00000
     15      16.7295      0.00000

 k-point     5 :       0.2667    0.0000    0.0000
  band No.  band energies     occupation 
      1     -13.1551      2.00000
      2     -12.8504      2.00000
      3      -3.0753      2.00000
      4      -2.9583      2.00000
      5      -1.9380      2.00000
      6      -0.4680      2.00000
      7      -0.4150      2.00000
      8       0.0333      2.00000
      9      10.7098      0.00000
     10      11.2782      0.00000
     11      12.0376      0.00000
     12      12.8406      0.00000
     13      13.1756      0.00000
     14      16.5391      0.00000
     15      18.9109      0.00000

 k-point     6 :       0.3333   -0.0000    0.0000
  band No.  band energies     occupation 
      1     -12.2178      2.00000
      2     -11.9323      2.00000
      3      -4.8561      2.00000
      4      -4.7077      2.00000
      5      -1.0492      2.00000
      6      -0.9927      2.00000
      7      -0.8256      2.00000
      8       1.0150      2.00000
      9       9.2720      0.00000
     10      10.2637      0.00000
     11      11.8381      0.00000
     12      12.5914      0.00000
     13      13.0012      0.00000
     14      17.2551      0.00000
     15      19.7092      0.00000

 k-point     7 :       0.4000    0.0000    0.0000
  band No.  band energies     occupation 
      1     -11.0940      2.00000
      2     -10.8320      2.00000
      3      -6.5778      2.00000
      4      -6.4006      2.00000
      5      -1.4588      2.00000
      6      -1.4003      2.00000
      7       0.4440      2.00000
      8       2.0321      2.00000
      9       7.4473      0.00000
     10       8.5555      0.00000
     11      12.3536      0.00000
     12      12.7393      0.00000
     13      13.3704      0.00000
     14      18.0059      0.00000
     15      18.4040      0.00000

 k-point     8 :       0.4667    0.0000    0.0000
  band No.  band energies     occupation 
      1      -9.8340      2.00000
      2      -9.6131      2.00000
      3      -8.1293      2.00000
      4      -7.9431      2.00000
      5      -1.6694      2.00000
      6      -1.6099      2.00000
      7       1.6463      2.00000
      8       2.6384      2.00000
      9       6.3241      0.00000
     10       7.2119      0.00000
     11      12.2547      0.00000
     12      12.6971      0.00000
     13      14.9176      0.00000
     14      16.6642      0.00000
     15      18.6776      0.00000

 k-point     9 :       0.0667    0.0667    0.0000
  band No.  band energies     occupation 
      1     -14.5302      2.00000
      2     -14.1966      2.00000
      3      -3.6108      2.00000
      4      -1.5008      2.00000
      5       0.6295      2.00000
      6       0.6596      2.00000
      7       1.0819      2.00000
      8       1.1052      2.00000
      9       9.0317      0.00000
     10      13.3792      0.00000
     11      13.4859      0.00000
     12      14.3510      0.00000
     13      14.4102      0.00000
     14      15.1532      0.00000
     15      15.3539      0.00000

 k-point    10 :       0.1333    0.0667    0.0000
  band No.  band energies     occupation 
      1     -14.1047      2.00000
      2     -13.7801      2.00000
      3      -3.0896      2.00000
      4      -1.0180      2.00000
      5      -0.6176      2.00000
      6      -0.5596      2.00000
      7       0.3357      2.00000
      8       0.3752      2.00000
      9       9.5514      0.00000
     10      13.5045      0.00000
     11      13.6861      0.00000
     12      13.8653      0.00000
     13      14.2645      0.00000
     14      15.5726      0.00000
     15      15.6556      0.00000

 k-point    11 :       0.2000    0.0667    0.0000
  band No.  band energies     occupation 
      1     -13.4705      2.00000
      2     -13.1591      2.00000
      3      -2.3177      2.00000
      4      -2.2086      2.00000
      5      -2.1139      2.00000
      6      -0.4377      2.00000
      7      -0.3834      2.00000
      8      -0.3098      2.00000
      9      10.3292      0.00000
     10      12.1453      0.00000
     11      12.7302      0.00000
     12      13.3865      0.00000
     13      13.6733      0.00000
     14      16.2237      0.00000
     15      17.2079      0.00000

 k-point    12 :       0.2667    0.0667    0.0000
  band No.  band energies     occupation 
      1     -12.6331      2.00000
      2     -12.3391      2.00000
      3      -3.9419      2.00000
      4      -3.8129      2.00000
      5      -1.3121      2.00000
      6      -1.1093      2.00000
      7      -1.0469      2.00000
      8       0.5946      2.00000
      9      10.2106      0.00000
     10      11.0340      0.00000
     11      11.3559      0.00000
     12      13.1521      0.00000
     13      13.5279      0.00000
     14      16.8397      0.00000
     15      18.7787      0.00000

 k-point    13 :       0.3333    0.0667    0.0000
  band No.  band energies     occupation 
      1     -11.6020      2.00000
      2     -11.3291      2.00000
      3      -5.6801      2.00000
      4      -5.5194      2.00000
      5      -1.6191      2.00000
      6      -1.5521      2.00000
      7      -0.1102      2.00000
      8       1.6216      2.00000
      9       8.2918      0.00000
     10       9.3122      0.00000
     11      12.5779      0.00000
     12      12.9469      0.00000
     13      13.3853      0.00000
     14      17.4889      0.00000
     15      18.9268      0.00000

 k-point    14 :       0.4000    0.0667    0.0000
  band No.  band energies     occupation 
      1     -10.3993      2.00000
      2     -10.1539      2.00000
      3      -7.3266      2.00000
      4      -7.1405      2.00000
      5      -1.9352      2.00000
      6      -1.8660      2.00000
      7       1.1790      2.00000
      8       2.5270      2.00000
      9       6.7396      0.00000
     10       7.7504      0.00000
     11      12.7451      0.00000
     12      13.1855      0.00000
     13      14.1940      0.00000
     14      17.5639      0.00000
     15      18.1010      0.00000

 k-point    15 :       0.4667    0.0667    0.0000
  band No.  band energies     occupation 
      1      -9.3137      2.00000
      2      -9.1902      2.00000
      3      -8.4563      2.00000
      4      -8.3638      2.00000
      5      -2.0422      2.00000
      6      -1.9722      2.00000
      7       2.0137      2.00000
      8       2.7460      2.00000
      9       6.2139      0.00000
     10       6.9042      0.00000
     11      12.6929      0.00000
     12      13.1563      0.00000
     13      15.8129      0.00000
     14      15.8760      0.00000
     15      18.4843      0.00000

 k-point    16 :       0.1333    0.1333    0.0000
  band No.  band energies     occupation 
      1     -13.5760      2.00000
      2     -13.2624      2.00000
      3      -2.4450      2.00000
      4      -1.6937      2.00000
      5      -1.6444      2.00000
      6      -0.6409      2.00000
      7      -0.6057      2.00000
      8      -0.4252      2.00000
      9      10.2036      0.00000
     10      12.5176      0.00000
     11      12.9680      0.00000
     12      14.1396      0.00000
     13      14.3396      0.00000
     14      16.0784      0.00000
     15      16.2037      0.00000

 k-point    17 :       0.2000    0.1333    0.0000
  band No.  band energies     occupation 
      1     -12.8420      2.00000
      2     -12.5435      2.00000
      3      -3.0995      2.00000
      4      -3.0109      2.00000
      5      -1.5677      2.00000
      6      -1.5579      2.00000
      7      -1.5071      2.00000
      8       0.3799      2.00000
      9      10.8743      0.00000
     10      11.1107      0.00000
     11      11.4491      0.00000
     12      14.3658      0.00000
     13      14.6930      0.00000
     14      16.5177      0.00000
     15      17.0118      0.00000

 k-point    18 :       0.2667    0.1333    0.0000
  band No.  band energies     occupation 
      1     -11.9104      2.00000
      2     -11.6313      2.00000
      3      -4.7174      2.00000
      4      -4.5844      2.00000
      5      -2.2511      2.00000
      6      -2.1703      2.00000
      7      -0.4525      2.00000
      8       1.3552      2.00000
      9       9.0755      0.00000
     10       9.8507      0.00000
     11      12.2601      0.00000
     12      14.2162      0.00000
     13      14.6641      0.00000
     14      16.9319      0.00000
     15      18.1154      0.00000

 k-point    19 :       0.3333    0.1333    0.0000
  band No.  band energies     occupation 
      1     -10.7960      2.00000
      2     -10.5405      2.00000
      3      -6.3581      2.00000
      4      -6.1911      2.00000
      5      -2.6992      2.00000
      6      -2.6095      2.00000
      7       0.8130      2.00000
      8       2.3805      2.00000
      9       7.3651      0.00000
     10       8.2816      0.00000
     11      13.6136      0.00000
     12      14.0413      0.00000
     13      14.5531      0.00000
     14      17.2628      0.00000
     15      18.1235      0.00000

 k-point    20 :       0.4000    0.1333    0.0000
  band No.  band energies     occupation 
      1      -9.5529      2.00000
      2      -9.3388      2.00000
      3      -7.8642      2.00000
      4      -7.6864      2.00000
      5      -2.9227      2.00000
      6      -2.8296      2.00000
      7       2.0266      2.00000
      8       3.0180      2.00000
      9       6.2881      0.00000
     10       6.9777      0.00000
     11      13.9039      0.00000
     12      14.4361      0.00000
     13      15.2324      0.00000
     14      16.8419      0.00000
     15      17.5417      0.00000

 k-point    21 :       0.2000    0.2000    0.0000
  band No.  band energies     occupation 
      1     -12.0138      2.00000
      2     -11.7325      2.00000
      3      -4.0791      2.00000
      4      -4.0098      2.00000
      5      -2.7604      2.00000
      6      -2.7084      2.00000
      7      -0.5681      2.00000
      8       1.2634      2.00000
      9       9.4411      0.00000
     10      10.0195      0.00000
     11      12.1384      0.00000
     12      15.5073      0.00000
     13      15.8276      0.00000
     14      16.6890      0.00000
     15      17.0831      0.00000

 k-point    22 :       0.2667    0.2000    0.0000
  band No.  band energies     occupation 
      1     -10.9978      2.00000
      2     -10.7378      2.00000
      3      -5.3931      2.00000
      4      -5.2724      2.00000
      5      -3.5987      2.00000
      6      -3.5097      2.00000
      7       0.6178      2.00000
      8       2.2819      2.00000
      9       7.8922      0.00000
     10       8.5750      0.00000
     11      13.3906      0.00000
     12      15.6815      0.00000
     13      16.3122      0.00000
     14      16.6734      0.00000
     15      17.5834      0.00000

 k-point    23 :       0.3333    0.2000    0.0000
  band No.  band energies     occupation 
      1      -9.8208      2.00000
      2      -9.5886      2.00000
      3      -6.8670      2.00000
      4      -6.7029      2.00000
      5      -4.0263      2.00000
      6      -3.9148      2.00000
      7       1.9079      2.00000
      8       3.2383      2.00000
      9       6.4955      0.00000
     10       7.2092      0.00000
     11      14.8210      0.00000
     12      15.5357      0.00000
     13      16.2917      0.00000
     14      16.5862      0.00000
     15      17.0576      0.00000

 k-point    24 :       0.4000    0.2000    0.0000
  band No.  band energies     occupation 
      1      -8.7773      2.00000
      2      -8.6602      2.00000
      3      -7.9226      2.00000
      4      -7.8442      2.00000
      5      -4.1581      2.00000
      6      -4.0412      2.00000
      7       2.7885      2.00000
      8       3.4995      2.00000
      9       6.1099      0.00000
     10       6.2723      0.00000
     11      15.4583      0.00000
     12      16.2312      0.00000
     13      16.2831      0.00000
     14      16.4098      0.00000
     15      16.6480      0.00000

 k-point    25 :       0.2667    0.2667    0.0000
  band No.  band energies     occupation 
      1      -9.9156      2.00000
      2      -9.6798      2.00000
      3      -6.1264      2.00000
      4      -6.0382      2.00000
      5      -4.7513      2.00000
      6      -4.6858      2.00000
      7       1.8534      2.00000
      8       3.3048      2.00000
      9       6.6354      0.00000
     10       7.3083      0.00000
     11      14.6996      0.00000
     12      16.2172      0.00000
     13      16.6615      0.00000
     14      16.9092      0.00000
     15      17.0958      0.00000

 k-point    26 :       0.3333    0.2667    0.0000
  band No.  band energies     occupation 
      1      -8.7272      2.00000
      2      -8.5326      2.00000
      3      -7.2219      2.00000
      4      -7.0891      2.00000
      5      -5.3142      2.00000
      6      -5.2065      2.00000
      7       3.1085      2.00000
      8       4.1134      2.00000
      9       5.5900      0.00000
     10       6.1704      0.00000
     11      15.8980      0.00000
     12      15.9879      0.00000
     13      16.0664      0.00000
     14      16.8344      0.00000
     15      17.1391      0.00000

 k-point    27 :       0.3333    0.3333    0.0000
  band No.  band energies     occupation 
      1      -7.7584      2.00000
      2      -7.6508      2.00000
      3      -7.6508      2.00000
      4      -7.5475      2.00000
      5      -5.9478      2.00000
      6      -5.9478      2.00000
      7       4.0696      2.00000
      8       4.7279      1.22638
      9       4.7279      1.22638
     10       5.5274      0.00000
     11      15.6178      0.00000
     12      15.6178      0.00000
     13      16.8736      0.00000
     14      17.0770      0.00000
     15      17.0770      0.00000

 k-point    28 :       0.0000    0.0000    0.3333
  band No.  band energies     occupation 
      1     -14.7701      2.00000
      2     -14.6003      2.00000
      3      -3.5451      2.00000
      4      -2.4958      2.00000
      5       1.7690      2.00000
      6       1.7690      2.00000
      7       1.7788      2.00000
      8       1.7788      2.00000
      9       9.9766      0.00000
     10      12.9650      0.00000
     11      13.1929      0.00000
     12      13.1929      0.00000
     13      13.2214      0.00000
     14      13.2214      0.00000
     15      16.3288      0.00000

 k-point    29 :       0.0667    0.0000    0.3333
  band No.  band energies     occupation 
      1     -14.6637      2.00000
      2     -14.4950      2.00000
      3      -3.4152      2.00000
      4      -2.3702      2.00000
      5       1.3493      2.00000
      6       1.3648      2.00000
      7       1.5402      2.00000
      8       1.5538      2.00000
      9      10.0985      0.00000
     10      13.0191      0.00000
     11      13.2826      0.00000
     12      13.3030      0.00000
     13      13.6513      0.00000
     14      13.6796      0.00000
     15      15.9546      0.00000

 k-point    30 :       0.1333    0.0000    0.3333
  band No.  band energies     occupation 
      1     -14.3452      2.00000
      2     -14.1798      2.00000
      3      -3.0275      2.00000
      4      -1.9957      2.00000
      5       0.2304      2.00000
      6       0.2580      2.00000
      7       0.9629      2.00000
      8       0.9824      2.00000
      9      10.4646      0.00000
     10      13.1267      0.00000
     11      13.3448      0.00000
     12      13.5546      0.00000
     13      14.9089      0.00000
     14      14.9119      0.00000
     15      14.9393      0.00000

 k-point    31 :       0.2000    0.0000    0.3333
  band No.  band energies     occupation 
      1     -13.8168      2.00000
      2     -13.6570      2.00000
      3      -2.3882      2.00000
      4      -1.3824      2.00000
      5      -1.3097      2.00000
      6      -1.2696      2.00000
      7       0.2436      2.00000
      8       0.2674      2.00000
      9      11.0644      0.00000
     10      13.0467      0.00000
     11      13.2218      0.00000
     12      13.3476      0.00000
     13      13.6140      0.00000
     14      14.1423      0.00000
     15      16.7543      0.00000

 k-point    32 :       0.2667    0.0000    0.3333
  band No.  band energies     occupation 
      1     -13.0827      2.00000
      2     -12.9304      2.00000
      3      -3.0467      2.00000
      4      -2.9882      2.00000
      5      -1.5096      2.00000
      6      -0.5392      2.00000
      7      -0.4548      2.00000
      8      -0.4283      2.00000
      9      11.3372      0.00000
     10      11.7878      0.00000
     11      12.0272      0.00000
     12      12.8994      0.00000
     13      13.1676      0.00000
     14      14.8091      0.00000
     15      18.9269      0.00000

 k-point    33 :       0.3333   -0.0000    0.3333
  band No.  band energies     occupation 
      1     -12.1497      2.00000
      2     -12.0070      2.00000
      3      -4.8200      2.00000
      4      -4.7458      2.00000
      5      -1.0352      2.00000
      6      -1.0069      2.00000
      7      -0.4206      2.00000
      8       0.4880      2.00000
      9       9.4607      0.00000
     10       9.9633      0.00000
     11      12.6142      0.00000
     12      12.7289      0.00000
     13      13.2998      0.00000
     14      15.7040      0.00000
     15      20.1503      0.00000

 k-point    34 :       0.4000    0.0000    0.3333
  band No.  band energies     occupation 
      1     -11.0311      2.00000
      2     -10.9003      2.00000
      3      -6.5349      2.00000
      4      -6.4463      2.00000
      5      -1.4443      2.00000
      6      -1.4150      2.00000
      7       0.8076      2.00000
      8       1.5979      2.00000
      9       7.6416      0.00000
     10       8.2011      0.00000
     11      12.4610      0.00000
     12      12.6608      0.00000
     13      14.4505      0.00000
     14      16.7008      0.00000
     15      19.0873      0.00000

 k-point    35 :       0.4667    0.0000    0.3333
  band No.  band energies     occupation 
      1      -9.7801      2.00000
      2      -9.6696      2.00000
      3      -8.0856      2.00000
      4      -7.9925      2.00000
      5      -1.6546      2.00000
      6      -1.6249      2.00000
      7       1.9209      2.00000
      8       2.4308      2.00000
      9       6.3882      0.00000
     10       6.8470      0.00000
     11      12.3607      0.00000
     12      12.5821      0.00000
     13      15.8792      0.00000
     14      17.2439      0.00000
     15      18.0650      0.00000

 k-point    36 :       0.0667    0.0667    0.3333
  band No.  band energies     occupation 
      1     -14.4513      2.00000
      2     -14.2847      2.00000
      3      -3.1565      2.00000
      4      -2.1201      2.00000
      5       0.6374      2.00000
      6       0.6525      2.00000
      7       1.0872      2.00000
      8       1.0989      2.00000
      9      10.3433      0.00000
     10      13.1627      0.00000
     11      13.4648      0.00000
     12      13.5446      0.00000
     13      14.3649      0.00000
     14      14.3947      0.00000
     15      15.2514      0.00000

 k-point    37 :       0.1333    0.0667    0.3333
  band No.  band energies     occupation 
      1     -14.0278      2.00000
      2     -13.8657      2.00000
      3      -2.6427      2.00000
      4      -1.6247      2.00000
      5      -0.6028      2.00000
      6      -0.5739      2.00000
      7       0.3452      2.00000
      8       0.3650      2.00000
      9      10.8323      0.00000
     10      13.3748      0.00000
     11      13.6167      0.00000
     12      13.8220      0.00000
     13      14.0580      0.00000
     14      14.2266      0.00000
     15      15.5951      0.00000

 k-point    38 :       0.2000    0.0667    0.3333
  band No.  band energies     occupation 
      1     -13.3966      2.00000
      2     -13.2411      2.00000
      3      -2.1854      2.00000
      4      -2.1386      2.00000
      5      -1.8820      2.00000
      6      -0.8948      2.00000
      7      -0.4243      2.00000
      8      -0.3971      2.00000
      9      11.5237      0.00000
     10      12.3146      0.00000
     11      12.5394      0.00000
     12      13.4095      0.00000
     13      13.6560      0.00000
     14      14.4828      0.00000
     15      17.2592      0.00000

 k-point    39 :       0.2667    0.0667    0.3333
  band No.  band energies     occupation 
      1     -12.5630      2.00000
      2     -12.4161      2.00000
      3      -3.9102      2.00000
      4      -3.8458      2.00000
      5      -1.0939      2.00000
      6      -1.0627      2.00000
      7      -0.8955      2.00000
      8       0.0442      2.00000
      9      10.3675      0.00000
     10      10.7918      0.00000
     11      12.5257      0.00000
     12      13.2211      0.00000
     13      13.5118      0.00000
     14      15.2534      0.00000
     15      18.9565      0.00000

 k-point    40 :       0.3333    0.0667    0.3333
  band No.  band energies     occupation 
      1     -11.5366      2.00000
      2     -11.4004      2.00000
      3      -5.6410      2.00000
      4      -5.5606      2.00000
      5      -1.6025      2.00000
      6      -1.5690      2.00000
      7       0.2760      2.00000
      8       1.1333      2.00000
      9       8.4897      0.00000
     10       9.0052      0.00000
     11      12.9900      0.00000
     12      13.1460      0.00000
     13      13.9002      0.00000
     14      16.1531      0.00000
     15      19.3726      0.00000

 k-point    41 :       0.4000    0.0667    0.3333
  band No.  band energies     occupation 
      1     -10.3402      2.00000
      2     -10.2177      2.00000
      3      -7.2817      2.00000
      4      -7.1886      2.00000
      5      -1.9181      2.00000
      6      -1.8834      2.00000
      7       1.5058      2.00000
      8       2.1842      2.00000
      9       6.8873      0.00000
     10       7.4034      0.00000
     11      12.8526      0.00000
     12      13.0733      0.00000
     13      15.1781      0.00000
     14      16.9979      0.00000
     15      18.3783      0.00000

 k-point    42 :       0.4667    0.0667    0.3333
  band No.  band energies     occupation 
      1      -9.2769      2.00000
      2      -9.2139      2.00000
      3      -8.4445      2.00000
      4      -8.3970      2.00000
      5      -2.0248      2.00000
      6      -1.9899      2.00000
      7       2.2475      2.00000
      8       2.6300      2.00000
      9       6.2103      0.00000
     10       6.5722      0.00000
     11      12.8011      0.00000
     12      13.0332      0.00000
     13      16.4488      0.00000
     14      16.6977      0.00000
     15      18.0106      0.00000

 k-point    43 :       0.1333    0.1333    0.3333
  band No.  band energies     occupation 
      1     -13.5015      2.00000
      2     -13.3450      2.00000
      3      -2.0084      2.00000
      4      -1.6811      2.00000
      5      -1.6556      2.00000
      6      -1.0142      2.00000
      7      -0.6331      2.00000
      8      -0.6154      2.00000
      9      11.4432      0.00000
     10      12.6155      0.00000
     11      12.8397      0.00000
     12      13.9555      0.00000
     13      14.3441      0.00000
     14      14.5169      0.00000
     15      16.1057      0.00000

 k-point    44 :       0.2000    0.1333    0.3333
  band No.  band energies     occupation 
      1     -12.7709      2.00000
      2     -12.6220      2.00000
      3      -3.0774      2.00000
      4      -3.0331      2.00000
      5      -1.5534      2.00000
      6      -1.5231      2.00000
      7      -1.1359      2.00000
      8      -0.1815      2.00000
      9      11.0026      0.00000
     10      11.2936      0.00000
     11      12.2947      0.00000
     12      14.3313      0.00000
     13      14.6531      0.00000
     14      15.0477      0.00000
     15      17.0999      0.00000

 k-point    45 :       0.2667    0.1333    0.3333
  band No.  band energies     occupation 
      1     -11.8437      2.00000
      2     -11.7043      2.00000
      3      -4.6847      2.00000
      4      -4.6183      2.00000
      5      -2.2314      2.00000
      6      -2.1910      2.00000
      7      -0.0541      2.00000
      8       0.8387      2.00000
      9       9.2465      0.00000
     10       9.6386      0.00000
     11      13.3203      0.00000
     12      14.2824      0.00000
     13      14.6050      0.00000
     14      15.6872      0.00000
     15      18.3406      0.00000

 k-point    46 :       0.3333    0.1333    0.3333
  band No.  band energies     occupation 
      1     -10.7346      2.00000
      2     -10.6069      2.00000
      3      -6.3176      2.00000
      4      -6.2340      2.00000
      5      -2.6772      2.00000
      6      -2.6324      2.00000
      7       1.1713      2.00000
      8       1.9511      2.00000
      9       7.5443      0.00000
     10       8.0097      0.00000
     11      14.1088      0.00000
     12      14.2485      0.00000
     13      14.7451      0.00000
     14      16.3142      0.00000
     15      18.4287      0.00000

 k-point    47 :       0.4000    0.1333    0.3333
  band No.  band energies     occupation 
      1      -9.5004      2.00000
      2      -9.3933      2.00000
      3      -7.8225      2.00000
      4      -7.7335      2.00000
      5      -2.8999      2.00000
      6      -2.8533      2.00000
      7       2.3005      2.00000
      8       2.8105      2.00000
      9       6.3326      0.00000
     10       6.6978      0.00000
     11      14.0155      0.00000
     12      14.2776      0.00000
     13      15.7998      0.00000
     14      16.5740      0.00000
     15      17.8308      0.00000

 k-point    48 :       0.2000    0.2000    0.3333
  band No.  band energies     occupation 
      1     -11.9466      2.00000
      2     -11.8062      2.00000
      3      -4.0609      2.00000
      4      -4.0261      2.00000
      5      -2.7494      2.00000
      6      -2.7234      2.00000
      7      -0.1658      2.00000
      8       0.7381      2.00000
      9       9.5867      0.00000
     10       9.8737      0.00000
     11      13.1903      0.00000
     12      15.1793      0.00000
     13      15.8386      0.00000
     14      15.8921      0.00000
     15      17.0675      0.00000

 k-point    49 :       0.2667    0.2000    0.3333
  band No.  band energies     occupation 
      1     -10.9355      2.00000
      2     -10.8056      2.00000
      3      -5.3631      2.00000
      4      -5.3027      2.00000
      5      -3.5779      2.00000
      6      -3.5334      2.00000
      7       0.9903      2.00000
      8       1.8145      2.00000
      9       8.0576      0.00000
     10       8.3994      0.00000
     11      14.1954      0.00000
     12      15.4573      0.00000
     13      16.1610      0.00000
     14      16.2155      0.00000
     15      17.6910      0.00000

 k-point    50 :       0.3333    0.2000    0.3333
  band No.  band energies     occupation 
      1      -9.7647      2.00000
      2      -9.6487      2.00000
      3      -6.8272      2.00000
      4      -6.7451      2.00000
      5      -3.9993      2.00000
      6      -3.9436      2.00000
      7       2.2275      2.00000
      8       2.8958      2.00000
      9       6.6306      0.00000
     10       6.9958      0.00000
     11      15.0477      0.00000
     12      15.4020      0.00000
     13      16.1026      0.00000
     14      16.2380      0.00000
     15      17.6678      0.00000

 k-point    51 :       0.4000    0.2000    0.3333
  band No.  band energies     occupation 
      1      -8.7426      2.00000
      2      -8.6831      2.00000
      3      -7.9127      2.00000
      4      -7.8726      2.00000
      5      -4.1298      2.00000
      6      -4.0713      2.00000
      7       3.0231      2.00000
      8       3.3977      2.00000
      9       6.0191      0.00000
     10       6.1289      0.00000
     11      15.3371      0.00000
     12      15.3428      0.00000
     13      16.1229      0.00000
     14      16.2357      0.00000
     15      17.7290      0.00000

 k-point    52 :       0.2667    0.2667    0.3333
  band No.  band energies     occupation 
      1      -9.8588      2.00000
      2      -9.7409      2.00000
      3      -6.1030      2.00000
      4      -6.0588      2.00000
      5      -4.7385      2.00000
      6      -4.7056      2.00000
      7       2.1882      2.00000
      8       2.9108      2.00000
      9       6.8031      0.00000
     10       7.1354      0.00000
     11      14.8260      0.00000
     12      15.3687      0.00000
     13      17.1305      0.00000
     14      17.5489      0.00000
     15      17.7276      0.00000

 k-point    53 :       0.3333    0.2667    0.3333
  band No.  band energies     occupation 
      1      -8.6794      2.00000
      2      -8.5821      2.00000
      3      -7.1898      2.00000
      4      -7.1233      2.00000
      5      -5.2897      2.00000
      6      -5.2358      2.00000
      7       3.3828      2.00000
      8       3.9017      2.00000
      9       5.6834      0.00000
     10       5.9704      0.00000
     11      14.9265      0.00000
     12      15.0785      0.00000
     13      17.2688      0.00000
     14      17.9253      0.00000
     15      18.0820      0.00000

 k-point    54 :       0.3333    0.3333    0.3333
  band No.  band energies     occupation 
      1      -7.7075      2.00000
      2      -7.6482      2.00000
      3      -7.6482      2.00000
      4      -7.6020      2.00000
      5      -5.9528      2.00000
      6      -5.9528      2.00000
      7       4.3966      2.00000
      8       4.7584      0.88681
      9       4.7584      0.88681
     10       5.1191      0.00000
     11      14.7775      0.00000
     12      14.7775      0.00000
     13      17.6967      0.00000
     14      18.5489      0.00000
     15      18.5497      0.00000


--------------------------------------------------------------------------------------------------------


 soft charge-density along one line, spin component           1
         0         1         2         3         4         5         6         7         8         9
 total charge-density along one line
 
 pseudopotential strength for first ion, spin component:           1
 10.265  13.760   0.000   0.000  -0.000  -0.000  -0.000   0.000
 13.760  18.445   0.000   0.000  -0.000  -0.000  -0.000   0.000
  0.000   0.000  -3.831  -0.000  -0.000   7.368   0.000   0.000
  0.000   0.000  -0.000  -3.820  -0.000   0.000   7.355   0.000
 -0.000  -0.000  -0.000  -0.000  -3.831   0.000   0.000   7.368
 -0.000  -0.000   7.368   0.000   0.000 -17.086  -0.000  -0.000
 -0.000  -0.000   0.000   7.355   0.000  -0.000 -17.075  -0.000
  0.000   0.000   0.000   0.000   7.368  -0.000  -0.000 -17.086
 total augmentation occupancy for first ion, spin component:           1
  8.076  -3.542   0.000   0.000   0.000   0.000   0.000   0.000
 -3.542   1.607   0.000   0.000   0.000   0.000   0.000   0.000
  0.000   0.000   1.842   0.000   0.000   0.170   0.000   0.000
  0.000   0.000   0.000   1.197   0.000   0.000   0.073   0.000
  0.000  -0.000   0.000   0.000   1.842   0.000   0.000   0.170
  0.000   0.000   0.170   0.000   0.000   0.017   0.000   0.000
  0.000   0.000   0.000   0.073   0.000   0.000   0.005  -0.000
  0.000   0.000   0.000   0.000   0.170   0.000  -0.000   0.017


------------------------ aborting loop because EDIFF is reached ----------------------------------------


    CHARGE:  cpu time    0.0102: real time    0.0102
    FORLOC:  cpu time    0.0002: real time    0.0002
    FORNL :  cpu time    0.0087: real time    0.0087
    STRESS:  cpu time    0.0424: real time    0.0425
    FORCOR:  cpu time    0.0012: real time    0.0012
    FORHAR:  cpu time    0.0012: real time    0.0012
    MIXING:  cpu time    0.0004: real time    0.0003
    OFIELD:  cpu time    0.0000: real time    0.0000

  FORCE on cell =-STRESS in cart. coord.  units (eV):
  Direction    XX          YY          ZZ          XY          YZ          ZX
  --------------------------------------------------------------------------------------
  Alpha Z    35.50115    35.50115    35.50115
  Ewald      76.93940    76.93940  -618.90013    -0.00000     0.00000    -0.00000
  Hartree   159.09289   159.09289  -137.11376    -0.00000    -0.00000    -0.00000
  E(xc)     -59.37195   -59.37195   -59.20678    -0.00000    -0.00000    -0.00000
  Local    -443.64729  -443.64732   514.22191    -0.00002     0.00000     0.00000
  n-local    -8.26775    -9.04610    -7.39000    -1.17915     0.02642     0.02894
  augment    -0.56937    -0.56936    -0.55739     0.00001    -0.00000    -0.00000
  Kinetic   236.95547   244.41926   273.40926     7.11469    -0.35881    -0.42482
  Fock        0.00000     0.00000     0.00000     0.00000     0.00000     0.00000
  -------------------------------------------------------------------------------------
  Total      -0.02473    -0.02473    -0.03575    -0.00000    -0.00000     0.00000
  in kB      -1.14816    -1.14816    -1.66005    -0.00000    -0.00000     0.00000
  external pressure =       -1.32 kB  Pullay stress =        0.00 kB


 VOLUME and BASIS-vectors are now :
 -----------------------------------------------------------------------------
  energy-cutoff  :      520.00
  volume of cell :       34.50
      direct lattice vectors                 reciprocal lattice vectors
     2.447541913  0.000000000  0.000000000     0.408573187  0.235889840  0.000000000
    -1.223770957  2.119633474  0.000000000     0.000000000  0.471779679  0.000000000
     0.000000000  0.000000000  6.650791927     0.000000000  0.000000000  0.150358034

  length of vectors
     2.447541913  2.447541913  6.650791927     0.471779679  0.471779679  0.150358034


 FORCES acting on ions
    electron-ion (+dipol)            ewald-force                    non-local-force                 convergence-correction
 -----------------------------------------------------------------------------------------------
   -.830E-06 0.479E-06 0.720E-15   0.627E-11 -.364E-11 -.184E-13   -.555E-16 0.000E+00 0.000E+00   0.214E-08 -.124E-08 -.848E-13
   0.827E-06 -.477E-06 -.854E-12   -.627E-11 0.364E-11 -.184E-13   -.194E-15 0.000E+00 0.000E+00   0.110E-08 -.636E-09 -.856E-13
   -.827E-06 0.477E-06 0.162E-13   -.127E-10 0.736E-11 0.184E-13   0.194E-15 0.000E+00 0.000E+00   -.110E-08 0.636E-09 0.942E-13
   0.830E-06 -.479E-06 -.297E-11   0.127E-10 -.737E-11 0.184E-13   0.833E-16 0.000E+00 0.000E+00   -.214E-08 0.124E-08 0.948E-13
 -----------------------------------------------------------------------------------------------
   -.158E-11 -.617E-11 -.380E-11   0.802E-14 -.556E-14 0.000E+00   0.278E-16 0.000E+00 0.000E+00   -.659E-14 0.489E-14 0.186E-13
 
 
 POSITION                                       TOTAL-FORCE (eV/Angst)
 -----------------------------------------------------------------------------------
      0.00000      0.00000      0.00000        -0.000000      0.000000      0.000000
      0.00000      1.41309      0.00000         0.000000     -0.000000      0.000000
      0.00000      1.41309      3.32540        -0.000000      0.000000      0.000000
      1.22377      0.70654      3.32540         0.000000     -0.000000      0.000000
 -----------------------------------------------------------------------------------
    total drift:                               -0.000000     -0.000000     -0.000000


--------------------------------------------------------------------------------------------------------



  FREE ENERGIE OF THE ION-ELECTRON SYSTEM (eV)
  ---------------------------------------------------
  free  energy   TOTEN  =       -40.44599505 eV

  energy  without entropy=      -40.44501234  energy(sigma->0) =      -40.44550370
 


--------------------------------------------------------------------------------------------------------


    POTLOK:  cpu time    0.0023: real time    0.0023


--------------------------------------------------------------------------------------------------------


 writing wavefunctions
     LOOP+:  cpu time    3.6819: real time    3.7721
    4ORBIT:  cpu time    0.0000: real time    0.0000

 total amount of memory used by VASP MPI-rank0    32369. kBytes
=======================================================================

   base      :      30000. kBytes
   nonl-proj :        827. kBytes
   fftplans  :        373. kBytes
   grid      :        531. kBytes
   one-center:          3. kBytes
   wavefun   :        635. kBytes
 
  
  
 General timing and accounting informations for this job:
 ========================================================
  
                  Total CPU time used (sec):        4.255
                            User time (sec):        3.906
                          System time (sec):        0.350
                         Elapsed time (sec):        4.774
  
                   Maximum memory used (kb):       93900.
                   Average memory used (kb):           0.
  
                          Minor page faults:        14020
                          Major page faults:            0
                 Voluntary context switches:          707
