<?xml version="1.0" encoding="ISO-8859-1"?>
<modeling>
 <generator>
  <i name="program" type="string">vasp </i>
  <i name="version" type="string">5.4.4.18Apr17-6-g9f103f2a35  </i>
  <i name="subversion" type="string">(build Oct 27 2021 09:51:08) complex            parallel </i>
  <i name="platform" type="string">LinuxIFC </i>
  <i name="date" type="string">2021 11 07 </i>
  <i name="time" type="string">09:45:29 </i>
 </generator>
 <incar>
  <i type="int" name="ISTART">     0</i>
  <i type="string" name="PREC">accurate</i>
  <i type="int" name="ICHARG">     2</i>
  <i name="EDIFF">      0.00000001</i>
  <i name="ENCUT">    520.00000000</i>
  <i type="int" name="ISMEAR">     0</i>
  <i name="SIGMA">      0.10000000</i>
  <v type="int" name="KPOINT_BSE">    -1     0     0     0</v>
 </incar>
 <structure name="primitive_cell" >
  <crystal>
   <varray name="basis" >
    <v>       2.44754191       0.00000000       0.00000000 </v>
    <v>      -1.22377096       2.11963347       0.00000000 </v>
    <v>       0.00000000       0.00000000       6.65079193 </v>
   </varray>
   <i name="volume">     34.50358869 </i>
   <varray name="rec_basis" >
    <v>       0.40857319       0.23588984       0.00000000 </v>
    <v>       0.00000000       0.47177968       0.00000000 </v>
    <v>       0.00000000       0.00000000       0.15035803 </v>
   </varray>
  </crystal>
  <varray name="positions" >
   <v>       0.00000000       0.00000000       0.00000000 </v>
   <v>       0.33333333      -0.33333333       0.00000000 </v>
   <v>       0.33333333      -0.33333333      -0.50000000 </v>
   <v>      -0.33333333       0.33333333      -0.50000000 </v>
  </varray>
 </structure>
 <varray name="primitive_index" >
  <v type="int" >        1 </v>
  <v type="int" >        2 </v>
  <v type="int" >        3 </v>
  <v type="int" >        4 </v>
 </varray>
 <kpoints>
  <generation param="Monkhorst-Pack">
   <v type="int" name="divisions">      15       15        3 </v>
   <v name="usershift">      0.00000000       0.00000000       0.00000000 </v>
   <v name="genvec1">      0.06666667       0.00000000       0.00000000 </v>
   <v name="genvec2">      0.00000000       0.06666667       0.00000000 </v>
   <v name="genvec3">      0.00000000       0.00000000       0.33333333 </v>
   <v name="shift">      0.00000000       0.00000000       0.00000000 </v>
  </generation>
  <varray name="kpointlist" >
   <v>       0.00000000       0.00000000       0.00000000 </v>
   <v>       0.06666667       0.00000000       0.00000000 </v>
   <v>       0.13333333       0.00000000       0.00000000 </v>
   <v>       0.20000000       0.00000000       0.00000000 </v>
   <v>       0.26666667       0.00000000       0.00000000 </v>
   <v>       0.33333333      -0.00000000       0.00000000 </v>
   <v>       0.40000000       0.00000000       0.00000000 </v>
   <v>       0.46666667       0.00000000       0.00000000 </v>
   <v>       0.06666667       0.06666667       0.00000000 </v>
   <v>       0.13333333       0.06666667       0.00000000 </v>
   <v>       0.20000000       0.06666667       0.00000000 </v>
   <v>       0.26666667       0.06666667       0.00000000 </v>
   <v>       0.33333333       0.06666667       0.00000000 </v>
   <v>       0.40000000       0.06666667       0.00000000 </v>
   <v>       0.46666667       0.06666667       0.00000000 </v>
   <v>       0.13333333       0.13333333       0.00000000 </v>
   <v>       0.20000000       0.13333333       0.00000000 </v>
   <v>       0.26666667       0.13333333       0.00000000 </v>
   <v>       0.33333333       0.13333333       0.00000000 </v>
   <v>       0.40000000       0.13333333       0.00000000 </v>
   <v>       0.20000000       0.20000000       0.00000000 </v>
   <v>       0.26666667       0.20000000       0.00000000 </v>
   <v>       0.33333333       0.20000000       0.00000000 </v>
   <v>       0.40000000       0.20000000       0.00000000 </v>
   <v>       0.26666667       0.26666667       0.00000000 </v>
   <v>       0.33333333       0.26666667       0.00000000 </v>
   <v>       0.33333333       0.33333333       0.00000000 </v>
   <v>       0.00000000       0.00000000       0.33333333 </v>
   <v>       0.06666667       0.00000000       0.33333333 </v>
   <v>       0.13333333       0.00000000       0.33333333 </v>
   <v>       0.20000000       0.00000000       0.33333333 </v>
   <v>       0.26666667       0.00000000       0.33333333 </v>
   <v>       0.33333333      -0.00000000       0.33333333 </v>
   <v>       0.40000000       0.00000000       0.33333333 </v>
   <v>       0.46666667       0.00000000       0.33333333 </v>
   <v>       0.06666667       0.06666667       0.33333333 </v>
   <v>       0.13333333       0.06666667       0.33333333 </v>
   <v>       0.20000000       0.06666667       0.33333333 </v>
   <v>       0.26666667       0.06666667       0.33333333 </v>
   <v>       0.33333333       0.06666667       0.33333333 </v>
   <v>       0.40000000       0.06666667       0.33333333 </v>
   <v>       0.46666667       0.06666667       0.33333333 </v>
   <v>       0.13333333       0.13333333       0.33333333 </v>
   <v>       0.20000000       0.13333333       0.33333333 </v>
   <v>       0.26666667       0.13333333       0.33333333 </v>
   <v>       0.33333333       0.13333333       0.33333333 </v>
   <v>       0.40000000       0.13333333       0.33333333 </v>
   <v>       0.20000000       0.20000000       0.33333333 </v>
   <v>       0.26666667       0.20000000       0.33333333 </v>
   <v>       0.33333333       0.20000000       0.33333333 </v>
   <v>       0.40000000       0.20000000       0.33333333 </v>
   <v>       0.26666667       0.26666667       0.33333333 </v>
   <v>       0.33333333       0.26666667       0.33333333 </v>
   <v>       0.33333333       0.33333333       0.33333333 </v>
  </varray>
  <varray name="weights" >
   <v>       0.00148148 </v>
   <v>       0.00888889 </v>
   <v>       0.00888889 </v>
   <v>       0.00888889 </v>
   <v>       0.00888889 </v>
   <v>       0.00888889 </v>
   <v>       0.00888889 </v>
   <v>       0.00888889 </v>
   <v>       0.00888889 </v>
   <v>       0.01777778 </v>
   <v>       0.01777778 </v>
   <v>       0.01777778 </v>
   <v>       0.01777778 </v>
   <v>       0.01777778 </v>
   <v>       0.00888889 </v>
   <v>       0.00888889 </v>
   <v>       0.01777778 </v>
   <v>       0.01777778 </v>
   <v>       0.01777778 </v>
   <v>       0.01777778 </v>
   <v>       0.00888889 </v>
   <v>       0.01777778 </v>
   <v>       0.01777778 </v>
   <v>       0.00888889 </v>
   <v>       0.00888889 </v>
   <v>       0.01777778 </v>
   <v>       0.00296296 </v>
   <v>       0.00296296 </v>
   <v>       0.01777778 </v>
   <v>       0.01777778 </v>
   <v>       0.01777778 </v>
   <v>       0.01777778 </v>
   <v>       0.01777778 </v>
   <v>       0.01777778 </v>
   <v>       0.01777778 </v>
   <v>       0.01777778 </v>
   <v>       0.03555556 </v>
   <v>       0.03555556 </v>
   <v>       0.03555556 </v>
   <v>       0.03555556 </v>
   <v>       0.03555556 </v>
   <v>       0.01777778 </v>
   <v>       0.01777778 </v>
   <v>       0.03555556 </v>
   <v>       0.03555556 </v>
   <v>       0.03555556 </v>
   <v>       0.03555556 </v>
   <v>       0.01777778 </v>
   <v>       0.03555556 </v>
   <v>       0.03555556 </v>
   <v>       0.01777778 </v>
   <v>       0.01777778 </v>
   <v>       0.03555556 </v>
   <v>       0.00592593 </v>
  </varray>
 </kpoints>
 <parameters>
  <separator name="general" >
   <i type="string" name="SYSTEM">unknown system</i>
   <i type="logical" name="LCOMPAT"> F  </i>
  </separator>
  <separator name="electronic" >
   <i type="string" name="PREC">accura</i>
   <i name="ENMAX">    520.00000000</i>
   <i name="ENAUG">    644.87300000</i>
   <i name="EDIFF">      0.00000001</i>
   <i type="int" name="IALGO">    38</i>
   <i type="int" name="IWAVPR">    10</i>
   <i type="int" name="NBANDS">    15</i>
   <i name="NELECT">     16.00000000</i>
   <i type="int" name="TURBO">     0</i>
   <i type="int" name="IRESTART">     0</i>
   <i type="int" name="NREBOOT">     0</i>
   <i type="int" name="NMIN">     0</i>
   <i name="EREF">      0.00000000</i>
   <separator name="electronic smearing" >
    <i type="int" name="ISMEAR">     0</i>
    <i name="SIGMA">      0.10000000</i>
    <i name="KSPACING">      0.50000000</i>
    <i type="logical" name="KGAMMA"> T  </i>
   </separator>
   <separator name="electronic projectors" >
    <i type="logical" name="LREAL"> F  </i>
    <v name="ROPT">      0.00000000</v>
    <i type="int" name="LMAXPAW">  -100</i>
    <i type="int" name="LMAXMIX">     2</i>
    <i type="logical" name="NLSPLINE"> F  </i>
   </separator>
   <separator name="electronic startup" >
    <i type="int" name="ISTART">     0</i>
    <i type="int" name="ICHARG">     2</i>
    <i type="int" name="INIWAV">     1</i>
   </separator>
   <separator name="electronic spin" >
    <i type="int" name="ISPIN">     1</i>
    <i type="logical" name="LNONCOLLINEAR"> F  </i>
    <v name="MAGMOM">      1.00000000      1.00000000      1.00000000      1.00000000</v>
    <i name="NUPDOWN">     -1.00000000</i>
    <i type="logical" name="LSORBIT"> F  </i>
    <v name="SAXIS">      0.00000000      0.00000000      1.00000000</v>
    <i type="logical" name="LSPIRAL"> F  </i>
    <v name="QSPIRAL">      0.00000000      0.00000000      0.00000000</v>
    <i type="logical" name="LZEROZ"> F  </i>
   </separator>
   <separator name="electronic exchange-correlation" >
    <i type="logical" name="LASPH"> F  </i>
    <i type="logical" name="LMETAGGA"> F  </i>
   </separator>
   <separator name="electronic convergence" >
    <i type="int" name="NELM">    60</i>
    <i type="int" name="NELMDL">    -5</i>
    <i type="int" name="NELMIN">     2</i>
    <i name="ENINI">    520.00000000</i>
    <separator name="electronic convergence detail" >
     <i type="logical" name="LDIAG"> T  </i>
     <i type="logical" name="LSUBROT"> F  </i>
     <i name="WEIMIN">      0.00000000</i>
     <i name="EBREAK">      0.00000000</i>
     <i name="DEPER">      0.30000000</i>
     <i type="int" name="NRMM">     4</i>
     <i name="TIME">      0.40000000</i>
    </separator>
   </separator>
   <separator name="electronic mixer" >
    <i name="AMIX">      0.40000000</i>
    <i name="BMIX">      1.00000000</i>
    <i name="AMIN">      0.10000000</i>
    <i name="AMIX_MAG">      1.60000000</i>
    <i name="BMIX_MAG">      1.00000000</i>
    <separator name="electronic mixer details" >
     <i type="int" name="IMIX">     4</i>
     <i type="logical" name="MIXFIRST"> F  </i>
     <i type="int" name="MAXMIX">   -45</i>
     <i name="WC">    100.00000000</i>
     <i type="int" name="INIMIX">     1</i>
     <i type="int" name="MIXPRE">     1</i>
     <i type="int" name="MREMOVE">     5</i>
    </separator>
   </separator>
   <separator name="electronic dipolcorrection" >
    <i type="logical" name="LDIPOL"> F  </i>
    <i type="logical" name="LMONO"> F  </i>
    <i type="int" name="IDIPOL">     0</i>
    <i name="EPSILON">      1.00000000</i>
    <v name="DIPOL">   -100.00000000   -100.00000000   -100.00000000</v>
    <i name="EFIELD">      0.00000000</i>
   </separator>
  </separator>
  <separator name="grids" >
   <i type="int" name="NGX">    18</i>
   <i type="int" name="NGY">    18</i>
   <i type="int" name="NGZ">    50</i>
   <i type="int" name="NGXF">    36</i>
   <i type="int" name="NGYF">    36</i>
   <i type="int" name="NGZF">   100</i>
   <i type="logical" name="ADDGRID"> F  </i>
  </separator>
  <separator name="ionic" >
   <i type="int" name="NSW">     0</i>
   <i type="int" name="IBRION">    -1</i>
   <i type="int" name="MDALGO">     0</i>
   <i type="int" name="ISIF">     2</i>
   <i name="PSTRESS">      0.00000000</i>
   <i name="EDIFFG">      0.00000010</i>
   <i type="int" name="NFREE">     0</i>
   <i name="POTIM">      0.50000000</i>
   <i name="SMASS">     -3.00000000</i>
   <i name="SCALEE">      1.00000000</i>
  </separator>
  <separator name="ionic md" >
   <i name="TEBEG">      0.00010000</i>
   <i name="TEEND">      0.00010000</i>
   <i type="int" name="NBLOCK">     1</i>
   <i type="int" name="KBLOCK">     1</i>
   <i type="int" name="NPACO">   256</i>
   <i name="APACO">     16.00000000</i>
  </separator>
  <separator name="symmetry" >
   <i type="int" name="ISYM">     2</i>
   <i name="SYMPREC">      0.00001000</i>
  </separator>
  <separator name="dos" >
   <i type="int" name="LORBIT">     0</i>
   <v name="RWIGS">     -1.00000000</v>
   <i type="int" name="NEDOS">   301</i>
   <i name="EMIN">     10.00000000</i>
   <i name="EMAX">    -10.00000000</i>
   <i name="EFERMI">      0.00000000</i>
  </separator>
  <separator name="writing" >
   <i type="int" name="NWRITE">     2</i>
   <i type="logical" name="LWAVE"> T  </i>
   <i type="logical" name="LDOWNSAMPLE"> F  </i>
   <i type="logical" name="LCHARG"> T  </i>
   <i type="logical" name="LPARD"> F  </i>
   <i type="logical" name="LVTOT"> F  </i>
   <i type="logical" name="LVHAR"> F  </i>
   <i type="logical" name="LELF"> F  </i>
   <i type="logical" name="LOPTICS"> F  </i>
   <v name="STM">      0.00000000      0.00000000      0.00000000      0.00000000      0.00000000      0.00000000      0.00000000</v>
  </separator>
  <separator name="performance" >
   <i type="int" name="NPAR">     5</i>
   <i type="int" name="NSIM">     4</i>
   <i type="int" name="NBLK">    -1</i>
   <i type="logical" name="LPLANE"> T  </i>
   <i type="logical" name="LSCALAPACK"> T  </i>
   <i type="logical" name="LSCAAWARE"> F  </i>
   <i type="logical" name="LSCALU"> F  </i>
   <i type="logical" name="LASYNC"> F  </i>
   <i type="logical" name="LORBITALREAL"> F  </i>
  </separator>
  <separator name="miscellaneous" >
   <i type="int" name="IDIOT">     3</i>
   <i type="int" name="ISPECIAL">     0</i>
   <i type="logical" name="LMUSIC"> F  </i>
   <v name="POMASS">     12.01100000</v>
   <v name="DARWINR">      0.00000000</v>
   <v name="DARWINV">      1.00000000</v>
   <i type="logical" name="LCORR"> T  </i>
  </separator>
  <i type="logical" name="GGA_COMPAT"> T  </i>
  <i type="logical" name="LBERRY"> F  </i>
  <i type="int" name="ICORELEVEL">     0</i>
  <i type="logical" name="LDAU"> F  </i>
  <i type="int" name="I_CONSTRAINED_M">     0</i>
  <separator name="electronic exchange-correlation" >
   <i type="string" name="GGA">--</i>
   <i type="int" name="VOSKOWN">     0</i>
   <i type="logical" name="LHFCALC"> F  </i>
   <i type="string" name="PRECFOCK"></i>
   <i type="logical" name="LSYMGRAD"> F  </i>
   <i type="logical" name="LHFONE"> F  </i>
   <i type="logical" name="LRHFCALC"> F  </i>
   <i type="logical" name="LTHOMAS"> F  </i>
   <i type="logical" name="LMODELHF"> F  </i>
   <i name="ENCUT4O">     -1.00000000</i>
   <i type="int" name="EXXOEP">     0</i>
   <i type="int" name="FOURORBIT">     0</i>
   <i name="AEXX">      0.00000000</i>
   <i name="HFALPHA">      0.00000000</i>
   <i name="MCALPHA">      0.00000000</i>
   <i name="ALDAX">      1.00000000</i>
   <i name="AGGAX">      1.00000000</i>
   <i name="ALDAC">      1.00000000</i>
   <i name="AGGAC">      1.00000000</i>
   <i type="int" name="NKREDX">     1</i>
   <i type="int" name="NKREDY">     1</i>
   <i type="int" name="NKREDZ">     1</i>
   <i type="logical" name="SHIFTRED"> F  </i>
   <i type="logical" name="ODDONLY"> F  </i>
   <i type="logical" name="EVENONLY"> F  </i>
   <i type="int" name="LMAXFOCK">     0</i>
   <i type="int" name="NMAXFOCKAE">     0</i>
   <i type="logical" name="LFOCKAEDFT"> F  </i>
   <i name="HFSCREEN">      0.00000000</i>
   <i name="HFSCREENC">      0.00000000</i>
   <i type="int" name="NBANDSGWLOW">     0</i>
  </separator>
  <separator name="vdW DFT" >
   <i type="logical" name="LUSE_VDW"> F  </i>
   <i name="Zab_VDW">     -0.84910000</i>
   <i name="PARAM1">      0.12340000</i>
   <i name="PARAM2">      1.00000000</i>
   <i name="PARAM3">      0.00000000</i>
  </separator>
  <separator name="model GW" >
   <i type="int" name="MODEL_GW">     0</i>
   <i name="MODEL_EPS0">      5.17553830</i>
   <i name="MODEL_ALPHA">      1.00000000</i>
  </separator>
  <separator name="linear response parameters" >
   <i type="logical" name="LEPSILON"> F  </i>
   <i type="logical" name="LRPA"> F  </i>
   <i type="logical" name="LNABLA"> F  </i>
   <i type="logical" name="LVEL"> F  </i>
   <i type="int" name="KINTER">     0</i>
   <i name="CSHIFT">      0.10000000</i>
   <i name="OMEGAMAX">     -1.00000000</i>
   <i name="DEG_THRESHOLD">      0.00200000</i>
   <i name="RTIME">     -0.10000000</i>
   <i name="WPLASMAI">      0.00000000</i>
   <v name="DFIELD">      0.00000000      0.00000000      0.00000000</v>
   <v name="WPLASMA">      0.00000000      0.00000000      0.00000000      0.00000000      0.00000000      0.00000000      0.00000000      0.00000000      0.00000000</v>
  </separator>
  <separator name="orbital magnetization" >
   <i type="logical" name="NUCIND"> F  </i>
   <v name="MAGPOS">      0.00000000      0.00000000      0.00000000</v>
   <i type="logical" name="LNICSALL"> T  </i>
   <i type="logical" name="ORBITALMAG"> F  </i>
   <i type="logical" name="LMAGBLOCH"> F  </i>
   <i type="logical" name="LCHIMAG"> F  </i>
   <i type="logical" name="LGAUGE"> T  </i>
   <i type="int" name="MAGATOM">     0</i>
   <v name="MAGDIPOL">      0.00000000      0.00000000      0.00000000</v>
   <v name="AVECCONST">      0.00000000      0.00000000      0.00000000</v>
  </separator>
  <separator name="response functions" >
   <i type="logical" name="LADDER"> F  </i>
   <i type="logical" name="LRPAFORCE"> F  </i>
   <i type="logical" name="LFXC"> F  </i>
   <i type="logical" name="LHARTREE"> T  </i>
   <i type="int" name="IBSE">     0</i>
   <v type="int" name="KPOINT">    -1     0     0     0</v>
   <i type="logical" name="LTCTE"> F  </i>
   <i type="logical" name="LTETE"> F  </i>
   <i type="logical" name="LTRIPLET"> F  </i>
   <i type="logical" name="LFXCEPS"> F  </i>
   <i type="logical" name="LFXHEG"> F  </i>
   <i type="int" name="NATURALO">     2</i>
   <i type="logical" name="L2ORDER"> F  </i>
   <i type="logical" name="LMP2LT"> F  </i>
   <i type="logical" name="LUSEW"> F  </i>
   <i name="ENCUTGW">     -2.00000000</i>
   <i name="ENCUTGWSOFT">     -2.00000000</i>
   <i name="ENCUTLF">     -1.00000000</i>
   <i type="int" name="LMAXMP2">    -1</i>
   <i name="SCISSOR">      0.00000000</i>
   <i type="int" name="NOMEGA">     0</i>
   <i type="int" name="NOMEGAR">     0</i>
   <i type="int" name="NBANDSGW">    -1</i>
   <i type="int" name="NBANDSO">    -1</i>
   <i type="int" name="NBANDSV">    -1</i>
   <i type="int" name="NELM">     1</i>
   <i type="int" name="NELMHF">     1</i>
   <i type="int" name="DIM">     3</i>
   <i type="int" name="ANTIRES">     0</i>
   <i name="OMEGAMAX">    -30.00000000</i>
   <i name="OMEGAMIN">    -30.00000000</i>
   <i name="OMEGATL">   -200.00000000</i>
   <i type="int" name="OMEGAGRID">   140</i>
   <i name="CSHIFT">     -0.10000000</i>
   <i type="logical" name="SELFENERGY"> F  </i>
   <i type="logical" name="LSPECTRAL"> F  </i>
   <i type="logical" name="LSPECTRALGW"> F  </i>
   <i type="logical" name="LSINGLES"> F  </i>
   <i type="logical" name="LFERMIGW"> F  </i>
   <i type="logical" name="ODDONLYGW"> F  </i>
   <i type="logical" name="EVENONLYGW"> F  </i>
   <i type="int" name="NKREDLFX">     1</i>
   <i type="int" name="NKREDLFY">     1</i>
   <i type="int" name="NKREDLFZ">     1</i>
   <i type="int" name="MAXMEM">  2800</i>
   <i type="int" name="TELESCOPE">     0</i>
   <i type="int" name="TAUPAR">     1</i>
   <i type="int" name="OMEGAPAR">    -1</i>
   <i name="LAMBDA">      1.00000000</i>
  </separator>
  <separator name="External order field" >
   <i name="OFIELD_KAPPA">      0.00000000</i>
   <v name="OFIELD_K">      0.00000000      0.00000000      0.00000000</v>
   <i name="OFIELD_Q6_NEAR">      0.00000000</i>
   <i name="OFIELD_Q6_FAR">      0.00000000</i>
   <i name="OFIELD_A">      0.00000000</i>
  </separator>
 </parameters>
 <atominfo>
  <atoms>       4 </atoms>
  <types>       1 </types>
  <array name="atoms" >
   <dimension dim="1">ion</dimension>
   <field type="string">element</field>
   <field type="int">atomtype</field>
   <set>
    <rc><c>C </c><c>   1</c></rc>
    <rc><c>C </c><c>   1</c></rc>
    <rc><c>C </c><c>   1</c></rc>
    <rc><c>C </c><c>   1</c></rc>
   </set>
  </array>
  <array name="atomtypes" >
   <dimension dim="1">type</dimension>
   <field type="int">atomspertype</field>
   <field type="string">element</field>
   <field>mass</field>
   <field>valence</field>
   <field type="string">pseudopotential</field>
   <set>
    <rc><c>   4</c><c>C </c><c>     12.01100000</c><c>      4.00000000</c><c>  PAW C 22Mar2012                       </c></rc>
   </set>
  </array>
 </atominfo>
 <structure name="initialpos" >
  <crystal>
   <varray name="basis" >
    <v>       2.44754191       0.00000000       0.00000000 </v>
    <v>      -1.22377096       2.11963347       0.00000000 </v>
    <v>       0.00000000       0.00000000       6.65079193 </v>
   </varray>
   <i name="volume">     34.50358869 </i>
   <varray name="rec_basis" >
    <v>       0.40857319       0.23588984       0.00000000 </v>
    <v>       0.00000000       0.47177968       0.00000000 </v>
    <v>       0.00000000       0.00000000       0.15035803 </v>
   </varray>
  </crystal>
  <varray name="positions" >
   <v>       0.00000000       0.00000000       0.00000000 </v>
   <v>       0.33333333       0.66666667       0.00000000 </v>
   <v>       0.33333333       0.66666667       0.50000000 </v>
   <v>       0.66666667       0.33333333       0.50000000 </v>
  </varray>
 </structure>
 <calculation>
  <scstep>
   <time name="dav">    0.22    0.22</time>
   <time name="total">    0.23    0.23</time>
   <energy>
    <i name="alphaZ">     35.50115494 </i>
    <i name="ewald">   -465.02100188 </i>
    <i name="hartreedc">   -145.51174634 </i>
    <i name="XCdc">     53.31261517 </i>
    <i name="pawpsdc">    432.24337526 </i>
    <i name="pawaedc">   -434.26865883 </i>
    <i name="eentropy">     -0.00342140 </i>
    <i name="bandstr">    -38.69386228 </i>
    <i name="atom">    586.71596219 </i>
    <i name="e_fr_energy">     24.27441682 </i>
    <i name="e_wo_entrp">     24.27783822 </i>
    <i name="e_0_energy">     24.27612752 </i>
   </energy>
  </scstep>
  <scstep>
   <time name="dav">    0.25    0.25</time>
   <time name="total">    0.25    0.25</time>
   <energy>
    <i name="e_fr_energy">    -40.79648824 </i>
    <i name="e_wo_entrp">    -40.79621904 </i>
    <i name="e_0_energy">    -40.79635364 </i>
   </energy>
  </scstep>
  <scstep>
   <time name="dav">    0.24    0.24</time>
   <time name="total">    0.24    0.25</time>
   <energy>
    <i name="e_fr_energy">    -43.28827214 </i>
    <i name="e_wo_entrp">    -43.28727383 </i>
    <i name="e_0_energy">    -43.28777298 </i>
   </energy>
  </scstep>
  <scstep>
   <time name="dav">    0.25    0.25</time>
   <time name="total">    0.25    0.25</time>
   <energy>
    <i name="e_fr_energy">    -43.31201116 </i>
    <i name="e_wo_entrp">    -43.31101218 </i>
    <i name="e_0_energy">    -43.31151167 </i>
   </energy>
  </scstep>
  <scstep>
   <time name="dav">    0.26    0.26</time>
   <time name="total">    0.27    0.27</time>
   <energy>
    <i name="e_fr_energy">    -43.31225151 </i>
    <i name="e_wo_entrp">    -43.31125252 </i>
    <i name="e_0_energy">    -43.31175202 </i>
   </energy>
  </scstep>
  <scstep>
   <time name="dav">    0.22    0.22</time>
   <time name="total">    0.24    0.24</time>
   <energy>
    <i name="e_fr_energy">    -41.11769048 </i>
    <i name="e_wo_entrp">    -41.11669749 </i>
    <i name="e_0_energy">    -41.11719398 </i>
   </energy>
  </scstep>
  <scstep>
   <time name="dav">    0.23    0.23</time>
   <time name="total">    0.24    0.24</time>
   <energy>
    <i name="e_fr_energy">    -40.44554179 </i>
    <i name="e_wo_entrp">    -40.44456053 </i>
    <i name="e_0_energy">    -40.44505116 </i>
   </energy>
  </scstep>
  <scstep>
   <time name="dav">    0.23    0.23</time>
   <time name="total">    0.24    0.24</time>
   <energy>
    <i name="e_fr_energy">    -40.44781041 </i>
    <i name="e_wo_entrp">    -40.44682694 </i>
    <i name="e_0_energy">    -40.44731868 </i>
   </energy>
  </scstep>
  <scstep>
   <time name="dav">    0.24    0.24</time>
   <time name="total">    0.25    0.25</time>
   <energy>
    <i name="e_fr_energy">    -40.44604541 </i>
    <i name="e_wo_entrp">    -40.44506255 </i>
    <i name="e_0_energy">    -40.44555398 </i>
   </energy>
  </scstep>
  <scstep>
   <time name="dav">    0.25    0.25</time>
   <time name="total">    0.26    0.27</time>
   <energy>
    <i name="e_fr_energy">    -40.44599742 </i>
    <i name="e_wo_entrp">    -40.44501474 </i>
    <i name="e_0_energy">    -40.44550608 </i>
   </energy>
  </scstep>
  <scstep>
   <time name="dav">    0.24    0.24</time>
   <time name="total">    0.25    0.25</time>
   <energy>
    <i name="e_fr_energy">    -40.44599533 </i>
    <i name="e_wo_entrp">    -40.44501262 </i>
    <i name="e_0_energy">    -40.44550397 </i>
   </energy>
  </scstep>
  <scstep>
   <time name="dav">    0.25    0.25</time>
   <time name="total">    0.27    0.27</time>
   <energy>
    <i name="e_fr_energy">    -40.44599505 </i>
    <i name="e_wo_entrp">    -40.44501234 </i>
    <i name="e_0_energy">    -40.44550369 </i>
   </energy>
  </scstep>
  <scstep>
   <time name="dav">    0.24    0.24</time>
   <time name="total">    0.25    0.25</time>
   <energy>
    <i name="e_fr_energy">    -40.44599505 </i>
    <i name="e_wo_entrp">    -40.44501234 </i>
    <i name="e_0_energy">    -40.44550370 </i>
   </energy>
  </scstep>
  <scstep>
   <time name="dav">    0.20    0.20</time>
   <time name="total">    0.20    0.20</time>
   <energy>
    <i name="alphaZ">     35.50115494 </i>
    <i name="ewald">   -465.02100188 </i>
    <i name="hartreedc">   -181.07157366 </i>
    <i name="XCdc">     55.71406859 </i>
    <i name="pawpsdc">   1712.55504924 </i>
    <i name="pawaedc">  -1715.18917052 </i>
    <i name="eentropy">     -0.00098272 </i>
    <i name="bandstr">    -69.64950124 </i>
    <i name="atom">    586.71596219 </i>
    <i name="e_fr_energy">    -40.44599505 </i>
    <i name="e_wo_entrp">    -40.44501234 </i>
    <i name="e_0_energy">    -40.44550370 </i>
   </energy>
  </scstep>
  <structure>
   <crystal>
    <varray name="basis" >
     <v>       2.44754191       0.00000000       0.00000000 </v>
     <v>      -1.22377096       2.11963347       0.00000000 </v>
     <v>       0.00000000       0.00000000       6.65079193 </v>
    </varray>
    <i name="volume">     34.50358869 </i>
    <varray name="rec_basis" >
     <v>       0.40857319       0.23588984       0.00000000 </v>
     <v>       0.00000000       0.47177968       0.00000000 </v>
     <v>       0.00000000       0.00000000       0.15035803 </v>
    </varray>
   </crystal>
   <varray name="positions" >
    <v>       0.00000000       0.00000000       0.00000000 </v>
    <v>       0.33333333       0.66666667       0.00000000 </v>
    <v>       0.33333333       0.66666667       0.50000000 </v>
    <v>       0.66666667       0.33333333       0.50000000 </v>
   </varray>
  </structure>
  <varray name="forces" >
   <v>      -0.00000000       0.00000000       0.00000000 </v>
   <v>       0.00000000      -0.00000000       0.00000000 </v>
   <v>      -0.00000000       0.00000000       0.00000000 </v>
   <v>       0.00000000      -0.00000000       0.00000000 </v>
  </varray>
  <varray name="stress" >
   <v>      -1.14816233      -0.00000000       0.00000000 </v>
   <v>      -0.00000000      -1.14816233      -0.00000000 </v>
   <v>       0.00000000      -0.00000000      -1.66005318 </v>
  </varray>
  <energy>
   <i name="e_fr_energy">    -40.44599505 </i>
   <i name="e_wo_entrp">    -40.44550370 </i>
   <i name="e_0_energy">     -0.00098272 </i>
  </energy>
  <time name="totalsc">    3.68    3.77</time>
  <eigenvalues>
   <array>
    <dimension dim="1">band</dimension>
    <dimension dim="2">kpoint</dimension>
    <dimension dim="3">spin</dimension>
    <field>eigene</field>
    <field>occ</field>
    <set>
     <set comment="spin 1">
      <set comment="kpoint 1">
       <r>  -14.8504    1.0000 </r>
       <r>  -14.5103    1.0000 </r>
       <r>   -4.0048    1.0000 </r>
       <r>   -1.8676    1.0000 </r>
       <r>    1.7641    1.0000 </r>
       <r>    1.7641    1.0000 </r>
       <r>    1.7837    1.0000 </r>
       <r>    1.7837    1.0000 </r>
       <r>    8.6439    0.0000 </r>
       <r>   13.1791    0.0000 </r>
       <r>   13.1791    0.0000 </r>
       <r>   13.2363    0.0000 </r>
       <r>   13.2363    0.0000 </r>
       <r>   15.0429    0.0000 </r>
       <r>   16.2794    0.0000 </r>
      </set>
      <set comment="kpoint 2">
       <r>  -14.7436    1.0000 </r>
       <r>  -14.4057    1.0000 </r>
       <r>   -3.8732    1.0000 </r>
       <r>   -1.7449    1.0000 </r>
       <r>    1.3415    1.0000 </r>
       <r>    1.3725    1.0000 </r>
       <r>    1.5333    1.0000 </r>
       <r>    1.5607    1.0000 </r>
       <r>    8.7728    0.0000 </r>
       <r>   13.2225    0.0000 </r>
       <r>   13.3011    0.0000 </r>
       <r>   13.6375    0.0000 </r>
       <r>   13.6943    0.0000 </r>
       <r>   15.1394    0.0000 </r>
       <r>   15.8969    0.0000 </r>
      </set>
      <set comment="kpoint 3">
       <r>  -14.4235    1.0000 </r>
       <r>  -14.0923    1.0000 </r>
       <r>   -3.4801    1.0000 </r>
       <r>   -1.3794    1.0000 </r>
       <r>    0.2166    1.0000 </r>
       <r>    0.2719    1.0000 </r>
       <r>    0.9532    1.0000 </r>
       <r>    0.9922    1.0000 </r>
       <r>    9.1609    0.0000 </r>
       <r>   13.2330    0.0000 </r>
       <r>   13.3804    0.0000 </r>
       <r>   14.8048    0.0000 </r>
       <r>   14.8985    0.0000 </r>
       <r>   14.9537    0.0000 </r>
       <r>   15.1340    0.0000 </r>
      </set>
      <set comment="kpoint 4">
       <r>  -13.8927    1.0000 </r>
       <r>  -13.5725    1.0000 </r>
       <r>   -2.8311    1.0000 </r>
       <r>   -1.3335    1.0000 </r>
       <r>   -1.2482    1.0000 </r>
       <r>   -0.7801    1.0000 </r>
       <r>    0.2319    1.0000 </r>
       <r>    0.2793    1.0000 </r>
       <r>    9.8085    0.0000 </r>
       <r>   13.0893    0.0000 </r>
       <r>   13.2005    0.0000 </r>
       <r>   13.3332    0.0000 </r>
       <r>   13.7163    0.0000 </r>
       <r>   15.9222    0.0000 </r>
       <r>   16.7295    0.0000 </r>
      </set>
      <set comment="kpoint 5">
       <r>  -13.1551    1.0000 </r>
       <r>  -12.8504    1.0000 </r>
       <r>   -3.0753    1.0000 </r>
       <r>   -2.9583    1.0000 </r>
       <r>   -1.9380    1.0000 </r>
       <r>   -0.4680    1.0000 </r>
       <r>   -0.4150    1.0000 </r>
       <r>    0.0333    1.0000 </r>
       <r>   10.7098    0.0000 </r>
       <r>   11.2782    0.0000 </r>
       <r>   12.0376    0.0000 </r>
       <r>   12.8406    0.0000 </r>
       <r>   13.1756    0.0000 </r>
       <r>   16.5391    0.0000 </r>
       <r>   18.9109    0.0000 </r>
      </set>
      <set comment="kpoint 6">
       <r>  -12.2178    1.0000 </r>
       <r>  -11.9323    1.0000 </r>
       <r>   -4.8561    1.0000 </r>
       <r>   -4.7077    1.0000 </r>
       <r>   -1.0492    1.0000 </r>
       <r>   -0.9927    1.0000 </r>
       <r>   -0.8256    1.0000 </r>
       <r>    1.0150    1.0000 </r>
       <r>    9.2720    0.0000 </r>
       <r>   10.2637    0.0000 </r>
       <r>   11.8381    0.0000 </r>
       <r>   12.5914    0.0000 </r>
       <r>   13.0012    0.0000 </r>
       <r>   17.2551    0.0000 </r>
       <r>   19.7092    0.0000 </r>
      </set>
      <set comment="kpoint 7">
       <r>  -11.0940    1.0000 </r>
       <r>  -10.8320    1.0000 </r>
       <r>   -6.5778    1.0000 </r>
       <r>   -6.4006    1.0000 </r>
       <r>   -1.4588    1.0000 </r>
       <r>   -1.4003    1.0000 </r>
       <r>    0.4440    1.0000 </r>
       <r>    2.0321    1.0000 </r>
       <r>    7.4473    0.0000 </r>
       <r>    8.5555    0.0000 </r>
       <r>   12.3536    0.0000 </r>
       <r>   12.7393    0.0000 </r>
       <r>   13.3704    0.0000 </r>
       <r>   18.0059    0.0000 </r>
       <r>   18.4040    0.0000 </r>
      </set>
      <set comment="kpoint 8">
       <r>   -9.8340    1.0000 </r>
       <r>   -9.6131    1.0000 </r>
       <r>   -8.1293    1.0000 </r>
       <r>   -7.9431    1.0000 </r>
       <r>   -1.6694    1.0000 </r>
       <r>   -1.6099    1.0000 </r>
       <r>    1.6463    1.0000 </r>
       <r>    2.6384    1.0000 </r>
       <r>    6.3241    0.0000 </r>
       <r>    7.2119    0.0000 </r>
       <r>   12.2547    0.0000 </r>
       <r>   12.6971    0.0000 </r>
       <r>   14.9176    0.0000 </r>
       <r>   16.6642    0.0000 </r>
       <r>   18.6776    0.0000 </r>
      </set>
      <set comment="kpoint 9">
       <r>  -14.5302    1.0000 </r>
       <r>  -14.1966    1.0000 </r>
       <r>   -3.6108    1.0000 </r>
       <r>   -1.5008    1.0000 </r>
       <r>    0.6295    1.0000 </r>
       <r>    0.6596    1.0000 </r>
       <r>    1.0819    1.0000 </r>
       <r>    1.1052    1.0000 </r>
       <r>    9.0317    0.0000 </r>
       <r>   13.3792    0.0000 </r>
       <r>   13.4859    0.0000 </r>
       <r>   14.3510    0.0000 </r>
       <r>   14.4102    0.0000 </r>
       <r>   15.1532    0.0000 </r>
       <r>   15.3539    0.0000 </r>
      </set>
      <set comment="kpoint 10">
       <r>  -14.1047    1.0000 </r>
       <r>  -13.7801    1.0000 </r>
       <r>   -3.0896    1.0000 </r>
       <r>   -1.0180    1.0000 </r>
       <r>   -0.6176    1.0000 </r>
       <r>   -0.5596    1.0000 </r>
       <r>    0.3357    1.0000 </r>
       <r>    0.3752    1.0000 </r>
       <r>    9.5514    0.0000 </r>
       <r>   13.5045    0.0000 </r>
       <r>   13.6861    0.0000 </r>
       <r>   13.8653    0.0000 </r>
       <r>   14.2645    0.0000 </r>
       <r>   15.5726    0.0000 </r>
       <r>   15.6556    0.0000 </r>
      </set>
      <set comment="kpoint 11">
       <r>  -13.4705    1.0000 </r>
       <r>  -13.1591    1.0000 </r>
       <r>   -2.3177    1.0000 </r>
       <r>   -2.2086    1.0000 </r>
       <r>   -2.1139    1.0000 </r>
       <r>   -0.4377    1.0000 </r>
       <r>   -0.3834    1.0000 </r>
       <r>   -0.3098    1.0000 </r>
       <r>   10.3292    0.0000 </r>
       <r>   12.1453    0.0000 </r>
       <r>   12.7302    0.0000 </r>
       <r>   13.3865    0.0000 </r>
       <r>   13.6733    0.0000 </r>
       <r>   16.2237    0.0000 </r>
       <r>   17.2079    0.0000 </r>
      </set>
      <set comment="kpoint 12">
       <r>  -12.6331    1.0000 </r>
       <r>  -12.3391    1.0000 </r>
       <r>   -3.9419    1.0000 </r>
       <r>   -3.8129    1.0000 </r>
       <r>   -1.3121    1.0000 </r>
       <r>   -1.1093    1.0000 </r>
       <r>   -1.0469    1.0000 </r>
       <r>    0.5946    1.0000 </r>
       <r>   10.2106    0.0000 </r>
       <r>   11.0340    0.0000 </r>
       <r>   11.3559    0.0000 </r>
       <r>   13.1521    0.0000 </r>
       <r>   13.5279    0.0000 </r>
       <r>   16.8397    0.0000 </r>
       <r>   18.7787    0.0000 </r>
      </set>
      <set comment="kpoint 13">
       <r>  -11.6020    1.0000 </r>
       <r>  -11.3291    1.0000 </r>
       <r>   -5.6801    1.0000 </r>
       <r>   -5.5194    1.0000 </r>
       <r>   -1.6191    1.0000 </r>
       <r>   -1.5521    1.0000 </r>
       <r>   -0.1102    1.0000 </r>
       <r>    1.6216    1.0000 </r>
       <r>    8.2918    0.0000 </r>
       <r>    9.3122    0.0000 </r>
       <r>   12.5779    0.0000 </r>
       <r>   12.9469    0.0000 </r>
       <r>   13.3853    0.0000 </r>
       <r>   17.4889    0.0000 </r>
       <r>   18.9268    0.0000 </r>
      </set>
      <set comment="kpoint 14">
       <r>  -10.3993    1.0000 </r>
       <r>  -10.1539    1.0000 </r>
       <r>   -7.3266    1.0000 </r>
       <r>   -7.1405    1.0000 </r>
       <r>   -1.9352    1.0000 </r>
       <r>   -1.8660    1.0000 </r>
       <r>    1.1790    1.0000 </r>
       <r>    2.5270    1.0000 </r>
       <r>    6.7396    0.0000 </r>
       <r>    7.7504    0.0000 </r>
       <r>   12.7451    0.0000 </r>
       <r>   13.1855    0.0000 </r>
       <r>   14.1940    0.0000 </r>
       <r>   17.5639    0.0000 </r>
       <r>   18.1010    0.0000 </r>
      </set>
      <set comment="kpoint 15">
       <r>   -9.3137    1.0000 </r>
       <r>   -9.1902    1.0000 </r>
       <r>   -8.4563    1.0000 </r>
       <r>   -8.3638    1.0000 </r>
       <r>   -2.0422    1.0000 </r>
       <r>   -1.9722    1.0000 </r>
       <r>    2.0137    1.0000 </r>
       <r>    2.7460    1.0000 </r>
       <r>    6.2139    0.0000 </r>
       <r>    6.9042    0.0000 </r>
       <r>   12.6929    0.0000 </r>
       <r>   13.1563    0.0000 </r>
       <r>   15.8129    0.0000 </r>
       <r>   15.8760    0.0000 </r>
       <r>   18.4843    0.0000 </r>
      </set>
      <set comment="kpoint 16">
       <r>  -13.5760    1.0000 </r>
       <r>  -13.2624    1.0000 </r>
       <r>   -2.4450    1.0000 </r>
       <r>   -1.6937    1.0000 </r>
       <r>   -1.6444    1.0000 </r>
       <r>   -0.6409    1.0000 </r>
       <r>   -0.6057    1.0000 </r>
       <r>   -0.4252    1.0000 </r>
       <r>   10.2036    0.0000 </r>
       <r>   12.5176    0.0000 </r>
       <r>   12.9680    0.0000 </r>
       <r>   14.1396    0.0000 </r>
       <r>   14.3396    0.0000 </r>
       <r>   16.0784    0.0000 </r>
       <r>   16.2037    0.0000 </r>
      </set>
      <set comment="kpoint 17">
       <r>  -12.8420    1.0000 </r>
       <r>  -12.5435    1.0000 </r>
       <r>   -3.0995    1.0000 </r>
       <r>   -3.0109    1.0000 </r>
       <r>   -1.5677    1.0000 </r>
       <r>   -1.5579    1.0000 </r>
       <r>   -1.5071    1.0000 </r>
       <r>    0.3799    1.0000 </r>
       <r>   10.8743    0.0000 </r>
       <r>   11.1107    0.0000 </r>
       <r>   11.4491    0.0000 </r>
       <r>   14.3658    0.0000 </r>
       <r>   14.6930    0.0000 </r>
       <r>   16.5177    0.0000 </r>
       <r>   17.0118    0.0000 </r>
      </set>
      <set comment="kpoint 18">
       <r>  -11.9104    1.0000 </r>
       <r>  -11.6313    1.0000 </r>
       <r>   -4.7174    1.0000 </r>
       <r>   -4.5844    1.0000 </r>
       <r>   -2.2511    1.0000 </r>
       <r>   -2.1703    1.0000 </r>
       <r>   -0.4525    1.0000 </r>
       <r>    1.3552    1.0000 </r>
       <r>    9.0755    0.0000 </r>
       <r>    9.8507    0.0000 </r>
       <r>   12.2601    0.0000 </r>
       <r>   14.2162    0.0000 </r>
       <r>   14.6641    0.0000 </r>
       <r>   16.9319    0.0000 </r>
       <r>   18.1154    0.0000 </r>
      </set>
      <set comment="kpoint 19">
       <r>  -10.7960    1.0000 </r>
       <r>  -10.5405    1.0000 </r>
       <r>   -6.3581    1.0000 </r>
       <r>   -6.1911    1.0000 </r>
       <r>   -2.6992    1.0000 </r>
       <r>   -2.6095    1.0000 </r>
       <r>    0.8130    1.0000 </r>
       <r>    2.3805    1.0000 </r>
       <r>    7.3651    0.0000 </r>
       <r>    8.2816    0.0000 </r>
       <r>   13.6136    0.0000 </r>
       <r>   14.0413    0.0000 </r>
       <r>   14.5531    0.0000 </r>
       <r>   17.2628    0.0000 </r>
       <r>   18.1235    0.0000 </r>
      </set>
      <set comment="kpoint 20">
       <r>   -9.5529    1.0000 </r>
       <r>   -9.3388    1.0000 </r>
       <r>   -7.8642    1.0000 </r>
       <r>   -7.6864    1.0000 </r>
       <r>   -2.9227    1.0000 </r>
       <r>   -2.8296    1.0000 </r>
       <r>    2.0266    1.0000 </r>
       <r>    3.0180    1.0000 </r>
       <r>    6.2881    0.0000 </r>
       <r>    6.9777    0.0000 </r>
       <r>   13.9039    0.0000 </r>
       <r>   14.4361    0.0000 </r>
       <r>   15.2324    0.0000 </r>
       <r>   16.8419    0.0000 </r>
       <r>   17.5417    0.0000 </r>
      </set>
      <set comment="kpoint 21">
       <r>  -12.0138    1.0000 </r>
       <r>  -11.7325    1.0000 </r>
       <r>   -4.0791    1.0000 </r>
       <r>   -4.0098    1.0000 </r>
       <r>   -2.7604    1.0000 </r>
       <r>   -2.7084    1.0000 </r>
       <r>   -0.5681    1.0000 </r>
       <r>    1.2634    1.0000 </r>
       <r>    9.4411    0.0000 </r>
       <r>   10.0195    0.0000 </r>
       <r>   12.1384    0.0000 </r>
       <r>   15.5073    0.0000 </r>
       <r>   15.8276    0.0000 </r>
       <r>   16.6890    0.0000 </r>
       <r>   17.0831    0.0000 </r>
      </set>
      <set comment="kpoint 22">
       <r>  -10.9978    1.0000 </r>
       <r>  -10.7378    1.0000 </r>
       <r>   -5.3931    1.0000 </r>
       <r>   -5.2724    1.0000 </r>
       <r>   -3.5987    1.0000 </r>
       <r>   -3.5097    1.0000 </r>
       <r>    0.6178    1.0000 </r>
       <r>    2.2819    1.0000 </r>
       <r>    7.8922    0.0000 </r>
       <r>    8.5750    0.0000 </r>
       <r>   13.3906    0.0000 </r>
       <r>   15.6815    0.0000 </r>
       <r>   16.3122    0.0000 </r>
       <r>   16.6734    0.0000 </r>
       <r>   17.5834    0.0000 </r>
      </set>
      <set comment="kpoint 23">
       <r>   -9.8208    1.0000 </r>
       <r>   -9.5886    1.0000 </r>
       <r>   -6.8670    1.0000 </r>
       <r>   -6.7029    1.0000 </r>
       <r>   -4.0263    1.0000 </r>
       <r>   -3.9148    1.0000 </r>
       <r>    1.9079    1.0000 </r>
       <r>    3.2383    1.0000 </r>
       <r>    6.4955    0.0000 </r>
       <r>    7.2092    0.0000 </r>
       <r>   14.8210    0.0000 </r>
       <r>   15.5357    0.0000 </r>
       <r>   16.2917    0.0000 </r>
       <r>   16.5862    0.0000 </r>
       <r>   17.0576    0.0000 </r>
      </set>
      <set comment="kpoint 24">
       <r>   -8.7773    1.0000 </r>
       <r>   -8.6602    1.0000 </r>
       <r>   -7.9226    1.0000 </r>
       <r>   -7.8442    1.0000 </r>
       <r>   -4.1581    1.0000 </r>
       <r>   -4.0412    1.0000 </r>
       <r>    2.7885    1.0000 </r>
       <r>    3.4995    1.0000 </r>
       <r>    6.1099    0.0000 </r>
       <r>    6.2723    0.0000 </r>
       <r>   15.4583    0.0000 </r>
       <r>   16.2312    0.0000 </r>
       <r>   16.2831    0.0000 </r>
       <r>   16.4098    0.0000 </r>
       <r>   16.6480    0.0000 </r>
      </set>
      <set comment="kpoint 25">
       <r>   -9.9156    1.0000 </r>
       <r>   -9.6798    1.0000 </r>
       <r>   -6.1264    1.0000 </r>
       <r>   -6.0382    1.0000 </r>
       <r>   -4.7513    1.0000 </r>
       <r>   -4.6858    1.0000 </r>
       <r>    1.8534    1.0000 </r>
       <r>    3.3048    1.0000 </r>
       <r>    6.6354    0.0000 </r>
       <r>    7.3083    0.0000 </r>
       <r>   14.6996    0.0000 </r>
       <r>   16.2172    0.0000 </r>
       <r>   16.6615    0.0000 </r>
       <r>   16.9092    0.0000 </r>
       <r>   17.0958    0.0000 </r>
      </set>
      <set comment="kpoint 26">
       <r>   -8.7272    1.0000 </r>
       <r>   -8.5326    1.0000 </r>
       <r>   -7.2219    1.0000 </r>
       <r>   -7.0891    1.0000 </r>
       <r>   -5.3142    1.0000 </r>
       <r>   -5.2065    1.0000 </r>
       <r>    3.1085    1.0000 </r>
       <r>    4.1134    1.0000 </r>
       <r>    5.5900    0.0000 </r>
       <r>    6.1704    0.0000 </r>
       <r>   15.8980    0.0000 </r>
       <r>   15.9879    0.0000 </r>
       <r>   16.0664    0.0000 </r>
       <r>   16.8344    0.0000 </r>
       <r>   17.1391    0.0000 </r>
      </set>
      <set comment="kpoint 27">
       <r>   -7.7584    1.0000 </r>
       <r>   -7.6508    1.0000 </r>
       <r>   -7.6508    1.0000 </r>
       <r>   -7.5475    1.0000 </r>
       <r>   -5.9478    1.0000 </r>
       <r>   -5.9478    1.0000 </r>
       <r>    4.0696    1.0000 </r>
       <r>    4.7279    0.6132 </r>
       <r>    4.7279    0.6132 </r>
       <r>    5.5274    0.0000 </r>
       <r>   15.6178    0.0000 </r>
       <r>   15.6178    0.0000 </r>
       <r>   16.8736    0.0000 </r>
       <r>   17.0770    0.0000 </r>
       <r>   17.0770    0.0000 </r>
      </set>
      <set comment="kpoint 28">
       <r>  -14.7701    1.0000 </r>
       <r>  -14.6003    1.0000 </r>
       <r>   -3.5451    1.0000 </r>
       <r>   -2.4958    1.0000 </r>
       <r>    1.7690    1.0000 </r>
       <r>    1.7690    1.0000 </r>
       <r>    1.7788    1.0000 </r>
       <r>    1.7788    1.0000 </r>
       <r>    9.9766    0.0000 </r>
       <r>   12.9650    0.0000 </r>
       <r>   13.1929    0.0000 </r>
       <r>   13.1929    0.0000 </r>
       <r>   13.2214    0.0000 </r>
       <r>   13.2214    0.0000 </r>
       <r>   16.3288    0.0000 </r>
      </set>
      <set comment="kpoint 29">
       <r>  -14.6637    1.0000 </r>
       <r>  -14.4950    1.0000 </r>
       <r>   -3.4152    1.0000 </r>
       <r>   -2.3702    1.0000 </r>
       <r>    1.3493    1.0000 </r>
       <r>    1.3648    1.0000 </r>
       <r>    1.5402    1.0000 </r>
       <r>    1.5538    1.0000 </r>
       <r>   10.0985    0.0000 </r>
       <r>   13.0191    0.0000 </r>
       <r>   13.2826    0.0000 </r>
       <r>   13.3030    0.0000 </r>
       <r>   13.6513    0.0000 </r>
       <r>   13.6796    0.0000 </r>
       <r>   15.9546    0.0000 </r>
      </set>
      <set comment="kpoint 30">
       <r>  -14.3452    1.0000 </r>
       <r>  -14.1798    1.0000 </r>
       <r>   -3.0275    1.0000 </r>
       <r>   -1.9957    1.0000 </r>
       <r>    0.2304    1.0000 </r>
       <r>    0.2580    1.0000 </r>
       <r>    0.9629    1.0000 </r>
       <r>    0.9824    1.0000 </r>
       <r>   10.4646    0.0000 </r>
       <r>   13.1267    0.0000 </r>
       <r>   13.3448    0.0000 </r>
       <r>   13.5546    0.0000 </r>
       <r>   14.9089    0.0000 </r>
       <r>   14.9119    0.0000 </r>
       <r>   14.9393    0.0000 </r>
      </set>
      <set comment="kpoint 31">
       <r>  -13.8168    1.0000 </r>
       <r>  -13.6570    1.0000 </r>
       <r>   -2.3882    1.0000 </r>
       <r>   -1.3824    1.0000 </r>
       <r>   -1.3097    1.0000 </r>
       <r>   -1.2696    1.0000 </r>
       <r>    0.2436    1.0000 </r>
       <r>    0.2674    1.0000 </r>
       <r>   11.0644    0.0000 </r>
       <r>   13.0467    0.0000 </r>
       <r>   13.2218    0.0000 </r>
       <r>   13.3476    0.0000 </r>
       <r>   13.6140    0.0000 </r>
       <r>   14.1423    0.0000 </r>
       <r>   16.7543    0.0000 </r>
      </set>
      <set comment="kpoint 32">
       <r>  -13.0827    1.0000 </r>
       <r>  -12.9304    1.0000 </r>
       <r>   -3.0467    1.0000 </r>
       <r>   -2.9882    1.0000 </r>
       <r>   -1.5096    1.0000 </r>
       <r>   -0.5392    1.0000 </r>
       <r>   -0.4548    1.0000 </r>
       <r>   -0.4283    1.0000 </r>
       <r>   11.3372    0.0000 </r>
       <r>   11.7878    0.0000 </r>
       <r>   12.0272    0.0000 </r>
       <r>   12.8994    0.0000 </r>
       <r>   13.1676    0.0000 </r>
       <r>   14.8091    0.0000 </r>
       <r>   18.9269    0.0000 </r>
      </set>
      <set comment="kpoint 33">
       <r>  -12.1497    1.0000 </r>
       <r>  -12.0070    1.0000 </r>
       <r>   -4.8200    1.0000 </r>
       <r>   -4.7458    1.0000 </r>
       <r>   -1.0352    1.0000 </r>
       <r>   -1.0069    1.0000 </r>
       <r>   -0.4206    1.0000 </r>
       <r>    0.4880    1.0000 </r>
       <r>    9.4607    0.0000 </r>
       <r>    9.9633    0.0000 </r>
       <r>   12.6142    0.0000 </r>
       <r>   12.7289    0.0000 </r>
       <r>   13.2998    0.0000 </r>
       <r>   15.7040    0.0000 </r>
       <r>   20.1503    0.0000 </r>
      </set>
      <set comment="kpoint 34">
       <r>  -11.0311    1.0000 </r>
       <r>  -10.9003    1.0000 </r>
       <r>   -6.5349    1.0000 </r>
       <r>   -6.4463    1.0000 </r>
       <r>   -1.4443    1.0000 </r>
       <r>   -1.4150    1.0000 </r>
       <r>    0.8076    1.0000 </r>
       <r>    1.5979    1.0000 </r>
       <r>    7.6416    0.0000 </r>
       <r>    8.2011    0.0000 </r>
       <r>   12.4610    0.0000 </r>
       <r>   12.6608    0.0000 </r>
       <r>   14.4505    0.0000 </r>
       <r>   16.7008    0.0000 </r>
       <r>   19.0873    0.0000 </r>
      </set>
      <set comment="kpoint 35">
       <r>   -9.7801    1.0000 </r>
       <r>   -9.6696    1.0000 </r>
       <r>   -8.0856    1.0000 </r>
       <r>   -7.9925    1.0000 </r>
       <r>   -1.6546    1.0000 </r>
       <r>   -1.6249    1.0000 </r>
       <r>    1.9209    1.0000 </r>
       <r>    2.4308    1.0000 </r>
       <r>    6.3882    0.0000 </r>
       <r>    6.8470    0.0000 </r>
       <r>   12.3607    0.0000 </r>
       <r>   12.5821    0.0000 </r>
       <r>   15.8792    0.0000 </r>
       <r>   17.2439    0.0000 </r>
       <r>   18.0650    0.0000 </r>
      </set>
      <set comment="kpoint 36">
       <r>  -14.4513    1.0000 </r>
       <r>  -14.2847    1.0000 </r>
       <r>   -3.1565    1.0000 </r>
       <r>   -2.1201    1.0000 </r>
       <r>    0.6374    1.0000 </r>
       <r>    0.6525    1.0000 </r>
       <r>    1.0872    1.0000 </r>
       <r>    1.0989    1.0000 </r>
       <r>   10.3433    0.0000 </r>
       <r>   13.1627    0.0000 </r>
       <r>   13.4648    0.0000 </r>
       <r>   13.5446    0.0000 </r>
       <r>   14.3649    0.0000 </r>
       <r>   14.3947    0.0000 </r>
       <r>   15.2514    0.0000 </r>
      </set>
      <set comment="kpoint 37">
       <r>  -14.0278    1.0000 </r>
       <r>  -13.8657    1.0000 </r>
       <r>   -2.6427    1.0000 </r>
       <r>   -1.6247    1.0000 </r>
       <r>   -0.6028    1.0000 </r>
       <r>   -0.5739    1.0000 </r>
       <r>    0.3452    1.0000 </r>
       <r>    0.3650    1.0000 </r>
       <r>   10.8323    0.0000 </r>
       <r>   13.3748    0.0000 </r>
       <r>   13.6167    0.0000 </r>
       <r>   13.8220    0.0000 </r>
       <r>   14.0580    0.0000 </r>
       <r>   14.2266    0.0000 </r>
       <r>   15.5951    0.0000 </r>
      </set>
      <set comment="kpoint 38">
       <r>  -13.3966    1.0000 </r>
       <r>  -13.2411    1.0000 </r>
       <r>   -2.1854    1.0000 </r>
       <r>   -2.1386    1.0000 </r>
       <r>   -1.8820    1.0000 </r>
       <r>   -0.8948    1.0000 </r>
       <r>   -0.4243    1.0000 </r>
       <r>   -0.3971    1.0000 </r>
       <r>   11.5237    0.0000 </r>
       <r>   12.3146    0.0000 </r>
       <r>   12.5394    0.0000 </r>
       <r>   13.4095    0.0000 </r>
       <r>   13.6560    0.0000 </r>
       <r>   14.4828    0.0000 </r>
       <r>   17.2592    0.0000 </r>
      </set>
      <set comment="kpoint 39">
       <r>  -12.5630    1.0000 </r>
       <r>  -12.4161    1.0000 </r>
       <r>   -3.9102    1.0000 </r>
       <r>   -3.8458    1.0000 </r>
       <r>   -1.0939    1.0000 </r>
       <r>   -1.0627    1.0000 </r>
       <r>   -0.8955    1.0000 </r>
       <r>    0.0442    1.0000 </r>
       <r>   10.3675    0.0000 </r>
       <r>   10.7918    0.0000 </r>
       <r>   12.5257    0.0000 </r>
       <r>   13.2211    0.0000 </r>
       <r>   13.5118    0.0000 </r>
       <r>   15.2534    0.0000 </r>
       <r>   18.9565    0.0000 </r>
      </set>
      <set comment="kpoint 40">
       <r>  -11.5366    1.0000 </r>
       <r>  -11.4004    1.0000 </r>
       <r>   -5.6410    1.0000 </r>
       <r>   -5.5606    1.0000 </r>
       <r>   -1.6025    1.0000 </r>
       <r>   -1.5690    1.0000 </r>
       <r>    0.2760    1.0000 </r>
       <r>    1.1333    1.0000 </r>
       <r>    8.4897    0.0000 </r>
       <r>    9.0052    0.0000 </r>
       <r>   12.9900    0.0000 </r>
       <r>   13.1460    0.0000 </r>
       <r>   13.9002    0.0000 </r>
       <r>   16.1531    0.0000 </r>
       <r>   19.3726    0.0000 </r>
      </set>
      <set comment="kpoint 41">
       <r>  -10.3402    1.0000 </r>
       <r>  -10.2177    1.0000 </r>
       <r>   -7.2817    1.0000 </r>
       <r>   -7.1886    1.0000 </r>
       <r>   -1.9181    1.0000 </r>
       <r>   -1.8834    1.0000 </r>
       <r>    1.5058    1.0000 </r>
       <r>    2.1842    1.0000 </r>
       <r>    6.8873    0.0000 </r>
       <r>    7.4034    0.0000 </r>
       <r>   12.8526    0.0000 </r>
       <r>   13.0733    0.0000 </r>
       <r>   15.1781    0.0000 </r>
       <r>   16.9979    0.0000 </r>
       <r>   18.3783    0.0000 </r>
      </set>
      <set comment="kpoint 42">
       <r>   -9.2769    1.0000 </r>
       <r>   -9.2139    1.0000 </r>
       <r>   -8.4445    1.0000 </r>
       <r>   -8.3970    1.0000 </r>
       <r>   -2.0248    1.0000 </r>
       <r>   -1.9899    1.0000 </r>
       <r>    2.2475    1.0000 </r>
       <r>    2.6300    1.0000 </r>
       <r>    6.2103    0.0000 </r>
       <r>    6.5722    0.0000 </r>
       <r>   12.8011    0.0000 </r>
       <r>   13.0332    0.0000 </r>
       <r>   16.4488    0.0000 </r>
       <r>   16.6977    0.0000 </r>
       <r>   18.0106    0.0000 </r>
      </set>
      <set comment="kpoint 43">
       <r>  -13.5015    1.0000 </r>
       <r>  -13.3450    1.0000 </r>
       <r>   -2.0084    1.0000 </r>
       <r>   -1.6811    1.0000 </r>
       <r>   -1.6556    1.0000 </r>
       <r>   -1.0142    1.0000 </r>
       <r>   -0.6331    1.0000 </r>
       <r>   -0.6154    1.0000 </r>
       <r>   11.4432    0.0000 </r>
       <r>   12.6155    0.0000 </r>
       <r>   12.8397    0.0000 </r>
       <r>   13.9555    0.0000 </r>
       <r>   14.3441    0.0000 </r>
       <r>   14.5169    0.0000 </r>
       <r>   16.1057    0.0000 </r>
      </set>
      <set comment="kpoint 44">
       <r>  -12.7709    1.0000 </r>
       <r>  -12.6220    1.0000 </r>
       <r>   -3.0774    1.0000 </r>
       <r>   -3.0331    1.0000 </r>
       <r>   -1.5534    1.0000 </r>
       <r>   -1.5231    1.0000 </r>
       <r>   -1.1359    1.0000 </r>
       <r>   -0.1815    1.0000 </r>
       <r>   11.0026    0.0000 </r>
       <r>   11.2936    0.0000 </r>
       <r>   12.2947    0.0000 </r>
       <r>   14.3313    0.0000 </r>
       <r>   14.6531    0.0000 </r>
       <r>   15.0477    0.0000 </r>
       <r>   17.0999    0.0000 </r>
      </set>
      <set comment="kpoint 45">
       <r>  -11.8437    1.0000 </r>
       <r>  -11.7043    1.0000 </r>
       <r>   -4.6847    1.0000 </r>
       <r>   -4.6183    1.0000 </r>
       <r>   -2.2314    1.0000 </r>
       <r>   -2.1910    1.0000 </r>
       <r>   -0.0541    1.0000 </r>
       <r>    0.8387    1.0000 </r>
       <r>    9.2465    0.0000 </r>
       <r>    9.6386    0.0000 </r>
       <r>   13.3203    0.0000 </r>
       <r>   14.2824    0.0000 </r>
       <r>   14.6050    0.0000 </r>
       <r>   15.6872    0.0000 </r>
       <r>   18.3406    0.0000 </r>
      </set>
      <set comment="kpoint 46">
       <r>  -10.7346    1.0000 </r>
       <r>  -10.6069    1.0000 </r>
       <r>   -6.3176    1.0000 </r>
       <r>   -6.2340    1.0000 </r>
       <r>   -2.6772    1.0000 </r>
       <r>   -2.6324    1.0000 </r>
       <r>    1.1713    1.0000 </r>
       <r>    1.9511    1.0000 </r>
       <r>    7.5443    0.0000 </r>
       <r>    8.0097    0.0000 </r>
       <r>   14.1088    0.0000 </r>
       <r>   14.2485    0.0000 </r>
       <r>   14.7451    0.0000 </r>
       <r>   16.3142    0.0000 </r>
       <r>   18.4287    0.0000 </r>
      </set>
      <set comment="kpoint 47">
       <r>   -9.5004    1.0000 </r>
       <r>   -9.3933    1.0000 </r>
       <r>   -7.8225    1.0000 </r>
       <r>   -7.7335    1.0000 </r>
       <r>   -2.8999    1.0000 </r>
       <r>   -2.8533    1.0000 </r>
       <r>    2.3005    1.0000 </r>
       <r>    2.8105    1.0000 </r>
       <r>    6.3326    0.0000 </r>
       <r>    6.6978    0.0000 </r>
       <r>   14.0155    0.0000 </r>
       <r>   14.2776    0.0000 </r>
       <r>   15.7998    0.0000 </r>
       <r>   16.5740    0.0000 </r>
       <r>   17.8308    0.0000 </r>
      </set>
      <set comment="kpoint 48">
       <r>  -11.9466    1.0000 </r>
       <r>  -11.8062    1.0000 </r>
       <r>   -4.0609    1.0000 </r>
       <r>   -4.0261    1.0000 </r>
       <r>   -2.7494    1.0000 </r>
       <r>   -2.7234    1.0000 </r>
       <r>   -0.1658    1.0000 </r>
       <r>    0.7381    1.0000 </r>
       <r>    9.5867    0.0000 </r>
       <r>    9.8737    0.0000 </r>
       <r>   13.1903    0.0000 </r>
       <r>   15.1793    0.0000 </r>
       <r>   15.8386    0.0000 </r>
       <r>   15.8921    0.0000 </r>
       <r>   17.0675    0.0000 </r>
      </set>
      <set comment="kpoint 49">
       <r>  -10.9355    1.0000 </r>
       <r>  -10.8056    1.0000 </r>
       <r>   -5.3631    1.0000 </r>
       <r>   -5.3027    1.0000 </r>
       <r>   -3.5779    1.0000 </r>
       <r>   -3.5334    1.0000 </r>
       <r>    0.9903    1.0000 </r>
       <r>    1.8145    1.0000 </r>
       <r>    8.0576    0.0000 </r>
       <r>    8.3994    0.0000 </r>
       <r>   14.1954    0.0000 </r>
       <r>   15.4573    0.0000 </r>
       <r>   16.1610    0.0000 </r>
       <r>   16.2155    0.0000 </r>
       <r>   17.6910    0.0000 </r>
      </set>
      <set comment="kpoint 50">
       <r>   -9.7647    1.0000 </r>
       <r>   -9.6487    1.0000 </r>
       <r>   -6.8272    1.0000 </r>
       <r>   -6.7451    1.0000 </r>
       <r>   -3.9993    1.0000 </r>
       <r>   -3.9436    1.0000 </r>
       <r>    2.2275    1.0000 </r>
       <r>    2.8958    1.0000 </r>
       <r>    6.6306    0.0000 </r>
       <r>    6.9958    0.0000 </r>
       <r>   15.0477    0.0000 </r>
       <r>   15.4020    0.0000 </r>
       <r>   16.1026    0.0000 </r>
       <r>   16.2380    0.0000 </r>
       <r>   17.6678    0.0000 </r>
      </set>
      <set comment="kpoint 51">
       <r>   -8.7426    1.0000 </r>
       <r>   -8.6831    1.0000 </r>
       <r>   -7.9127    1.0000 </r>
       <r>   -7.8726    1.0000 </r>
       <r>   -4.1298    1.0000 </r>
       <r>   -4.0713    1.0000 </r>
       <r>    3.0231    1.0000 </r>
       <r>    3.3977    1.0000 </r>
       <r>    6.0191    0.0000 </r>
       <r>    6.1289    0.0000 </r>
       <r>   15.3371    0.0000 </r>
       <r>   15.3428    0.0000 </r>
       <r>   16.1229    0.0000 </r>
       <r>   16.2357    0.0000 </r>
       <r>   17.7290    0.0000 </r>
      </set>
      <set comment="kpoint 52">
       <r>   -9.8588    1.0000 </r>
       <r>   -9.7409    1.0000 </r>
       <r>   -6.1030    1.0000 </r>
       <r>   -6.0588    1.0000 </r>
       <r>   -4.7385    1.0000 </r>
       <r>   -4.7056    1.0000 </r>
       <r>    2.1882    1.0000 </r>
       <r>    2.9108    1.0000 </r>
       <r>    6.8031    0.0000 </r>
       <r>    7.1354    0.0000 </r>
       <r>   14.8260    0.0000 </r>
       <r>   15.3687    0.0000 </r>
       <r>   17.1305    0.0000 </r>
       <r>   17.5489    0.0000 </r>
       <r>   17.7276    0.0000 </r>
      </set>
      <set comment="kpoint 53">
       <r>   -8.6794    1.0000 </r>
       <r>   -8.5821    1.0000 </r>
       <r>   -7.1898    1.0000 </r>
       <r>   -7.1233    1.0000 </r>
       <r>   -5.2897    1.0000 </r>
       <r>   -5.2358    1.0000 </r>
       <r>    3.3828    1.0000 </r>
       <r>    3.9017    1.0000 </r>
       <r>    5.6834    0.0000 </r>
       <r>    5.9704    0.0000 </r>
       <r>   14.9265    0.0000 </r>
       <r>   15.0785    0.0000 </r>
       <r>   17.2688    0.0000 </r>
       <r>   17.9253    0.0000 </r>
       <r>   18.0820    0.0000 </r>
      </set>
      <set comment="kpoint 54">
       <r>   -7.7075    1.0000 </r>
       <r>   -7.6482    1.0000 </r>
       <r>   -7.6482    1.0000 </r>
       <r>   -7.6020    1.0000 </r>
       <r>   -5.9528    1.0000 </r>
       <r>   -5.9528    1.0000 </r>
       <r>    4.3966    1.0000 </r>
       <r>    4.7584    0.4434 </r>
       <r>    4.7584    0.4434 </r>
       <r>    5.1191    0.0000 </r>
       <r>   14.7775    0.0000 </r>
       <r>   14.7775    0.0000 </r>
       <r>   17.6967    0.0000 </r>
       <r>   18.5489    0.0000 </r>
       <r>   18.5497    0.0000 </r>
      </set>
     </set>
    </set>
   </array>
  </eigenvalues>
  <separator name="orbital magnetization" >
   <v name="MAGDIPOLOUT">      0.00000000      0.00000000      0.00000000</v>
  </separator>
  <dos>
   <i name="efermi">      4.74828738 </i>
   <total>
    <array>
     <dimension dim="1">gridpoints</dimension>
     <dimension dim="2">spin</dimension>
     <field>energy</field>
     <field>total</field>
     <field>integrated</field>
     <set>
      <set comment="spin 1">
       <r>   -16.6005     0.0000     0.0000 </r>
       <r>   -16.4722     0.0000     0.0000 </r>
       <r>   -16.3438     0.0000     0.0000 </r>
       <r>   -16.2155     0.0000     0.0000 </r>
       <r>   -16.0871     0.0000     0.0000 </r>
       <r>   -15.9588     0.0000     0.0000 </r>
       <r>   -15.8305     0.0000     0.0000 </r>
       <r>   -15.7021     0.0000     0.0000 </r>
       <r>   -15.5738     0.0000     0.0000 </r>
       <r>   -15.4455     0.0000     0.0000 </r>
       <r>   -15.3171     0.0000     0.0000 </r>
       <r>   -15.1888     0.0000     0.0000 </r>
       <r>   -15.0605     0.0000     0.0000 </r>
       <r>   -14.9321     0.0039     0.0005 </r>
       <r>   -14.8038     0.0619     0.0085 </r>
       <r>   -14.6754     0.2459     0.0400 </r>
       <r>   -14.5471     0.3552     0.0856 </r>
       <r>   -14.4188     0.6224     0.1655 </r>
       <r>   -14.2904     0.5959     0.2420 </r>
       <r>   -14.1621     0.5369     0.3109 </r>
       <r>   -14.0338     0.6748     0.3975 </r>
       <r>   -13.9054     0.6001     0.4745 </r>
       <r>   -13.7771     0.7471     0.5703 </r>
       <r>   -13.6488     0.4527     0.6284 </r>
       <r>   -13.5204     0.4977     0.6923 </r>
       <r>   -13.3921     0.7432     0.7877 </r>
       <r>   -13.2637     0.7646     0.8858 </r>
       <r>   -13.1354     0.7197     0.9782 </r>
       <r>   -13.0071     0.4092     1.0307 </r>
       <r>   -12.8787     0.3821     1.0797 </r>
       <r>   -12.7504     0.6501     1.1632 </r>
       <r>   -12.6221     0.7899     1.2645 </r>
       <r>   -12.4937     0.9863     1.3911 </r>
       <r>   -12.3654     0.6251     1.4713 </r>
       <r>   -12.2371     0.3709     1.5189 </r>
       <r>   -12.1087     0.3060     1.5582 </r>
       <r>   -11.9804     0.5035     1.6228 </r>
       <r>   -11.8521     0.8878     1.7368 </r>
       <r>   -11.7237     0.8704     1.8485 </r>
       <r>   -11.5954     0.8360     1.9557 </r>
       <r>   -11.4670     0.6933     2.0447 </r>
       <r>   -11.3387     0.5682     2.1176 </r>
       <r>   -11.2104     0.2549     2.1503 </r>
       <r>   -11.0820     0.1943     2.1753 </r>
       <r>   -10.9537     0.6928     2.2642 </r>
       <r>   -10.8254     1.0371     2.3973 </r>
       <r>   -10.6970     1.1618     2.5464 </r>
       <r>   -10.5687     0.7259     2.6395 </r>
       <r>   -10.4404     0.4447     2.6966 </r>
       <r>   -10.3120     0.5689     2.7696 </r>
       <r>   -10.1837     0.6324     2.8508 </r>
       <r>   -10.0553     0.3419     2.8947 </r>
       <r>    -9.9270     0.1749     2.9171 </r>
       <r>    -9.7987     0.8402     3.0249 </r>
       <r>    -9.6703     1.3358     3.1964 </r>
       <r>    -9.5420     1.1748     3.3471 </r>
       <r>    -9.4137     0.8578     3.4572 </r>
       <r>    -9.2853     0.8016     3.5601 </r>
       <r>    -9.1570     0.5388     3.6292 </r>
       <r>    -9.0287     0.1157     3.6441 </r>
       <r>    -8.9003     0.0148     3.6460 </r>
       <r>    -8.7720     0.3197     3.6870 </r>
       <r>    -8.6436     1.0886     3.8267 </r>
       <r>    -8.5153     0.9414     3.9476 </r>
       <r>    -8.3870     0.6654     4.0330 </r>
       <r>    -8.2586     0.2860     4.0697 </r>
       <r>    -8.1303     0.1610     4.0903 </r>
       <r>    -8.0020     0.4481     4.1478 </r>
       <r>    -7.8736     0.9545     4.2703 </r>
       <r>    -7.7453     1.2038     4.4248 </r>
       <r>    -7.6170     0.8559     4.5346 </r>
       <r>    -7.4886     0.2523     4.5670 </r>
       <r>    -7.3603     0.1921     4.5917 </r>
       <r>    -7.2320     0.9881     4.7185 </r>
       <r>    -7.1036     1.5566     4.9183 </r>
       <r>    -6.9753     0.6011     4.9954 </r>
       <r>    -6.8469     0.4342     5.0511 </r>
       <r>    -6.7186     0.8356     5.1584 </r>
       <r>    -6.5903     0.4963     5.2220 </r>
       <r>    -6.4619     0.4365     5.2781 </r>
       <r>    -6.3336     0.7063     5.3687 </r>
       <r>    -6.2053     0.9075     5.4852 </r>
       <r>    -6.0769     0.7630     5.5831 </r>
       <r>    -5.9486     0.5155     5.6493 </r>
       <r>    -5.8203     0.1708     5.6712 </r>
       <r>    -5.6919     0.2696     5.7058 </r>
       <r>    -5.5636     0.8165     5.8106 </r>
       <r>    -5.4352     0.7268     5.9038 </r>
       <r>    -5.3069     1.3631     6.0788 </r>
       <r>    -5.1786     1.5083     6.2724 </r>
       <r>    -5.0502     0.2959     6.3103 </r>
       <r>    -4.9219     0.0567     6.3176 </r>
       <r>    -4.7936     0.5398     6.3869 </r>
       <r>    -4.6652     1.5311     6.5834 </r>
       <r>    -4.5369     1.0458     6.7176 </r>
       <r>    -4.4086     0.1547     6.7374 </r>
       <r>    -4.2802     0.0142     6.7393 </r>
       <r>    -4.1519     0.2934     6.7769 </r>
       <r>    -4.0235     1.3969     6.9562 </r>
       <r>    -3.8952     2.0778     7.2229 </r>
       <r>    -3.7669     1.1991     7.3767 </r>
       <r>    -3.6385     0.4564     7.4353 </r>
       <r>    -3.5102     1.1385     7.5814 </r>
       <r>    -3.3819     0.7168     7.6734 </r>
       <r>    -3.2535     0.1533     7.6931 </r>
       <r>    -3.1252     0.6468     7.7761 </r>
       <r>    -2.9969     1.9158     8.0220 </r>
       <r>    -2.8685     1.6572     8.2347 </r>
       <r>    -2.7402     1.4594     8.4219 </r>
       <r>    -2.6119     1.7588     8.6477 </r>
       <r>    -2.4835     0.7825     8.7481 </r>
       <r>    -2.3552     0.5811     8.8227 </r>
       <r>    -2.2268     1.3722     8.9988 </r>
       <r>    -2.0985     2.1619     9.2762 </r>
       <r>    -1.9702     1.7507     9.5009 </r>
       <r>    -1.8418     1.9016     9.7449 </r>
       <r>    -1.7135     1.1150     9.8880 </r>
       <r>    -1.5852     2.7545    10.2415 </r>
       <r>    -1.4568     2.9793    10.6239 </r>
       <r>    -1.3285     1.5029    10.8168 </r>
       <r>    -1.2002     0.9815    10.9427 </r>
       <r>    -1.0718     1.5963    11.1476 </r>
       <r>    -0.9435     1.9495    11.3978 </r>
       <r>    -0.8151     1.0696    11.5351 </r>
       <r>    -0.6868     0.6017    11.6123 </r>
       <r>    -0.5585     1.7678    11.8392 </r>
       <r>    -0.4301     2.2865    12.1326 </r>
       <r>    -0.3018     1.7606    12.3586 </r>
       <r>    -0.1735     0.7510    12.4549 </r>
       <r>    -0.0451     0.9149    12.5724 </r>
       <r>     0.0832     0.7539    12.6691 </r>
       <r>     0.2115     0.8235    12.7748 </r>
       <r>     0.3399     2.0831    13.0421 </r>
       <r>     0.4682     1.5237    13.2377 </r>
       <r>     0.5966     0.7715    13.3367 </r>
       <r>     0.7249     1.0182    13.4674 </r>
       <r>     0.8532     0.9689    13.5917 </r>
       <r>     0.9816     1.1358    13.7375 </r>
       <r>     1.1099     1.5209    13.9327 </r>
       <r>     1.2382     1.3222    14.1023 </r>
       <r>     1.3666     0.8628    14.2131 </r>
       <r>     1.4949     0.9267    14.3320 </r>
       <r>     1.6232     1.1766    14.4830 </r>
       <r>     1.7516     0.6626    14.5680 </r>
       <r>     1.8799     0.8746    14.6803 </r>
       <r>     2.0082     1.0624    14.8166 </r>
       <r>     2.1366     0.7447    14.9122 </r>
       <r>     2.2649     1.3252    15.0823 </r>
       <r>     2.3933     1.0860    15.2216 </r>
       <r>     2.5216     0.5053    15.2865 </r>
       <r>     2.6499     0.4152    15.3398 </r>
       <r>     2.7783     0.5191    15.4064 </r>
       <r>     2.9066     0.8860    15.5201 </r>
       <r>     3.0349     0.7532    15.6168 </r>
       <r>     3.1633     0.4636    15.6763 </r>
       <r>     3.2916     0.3748    15.7244 </r>
       <r>     3.4199     0.6403    15.8065 </r>
       <r>     3.5483     0.3554    15.8521 </r>
       <r>     3.6766     0.0434    15.8577 </r>
       <r>     3.8050     0.0479    15.8639 </r>
       <r>     3.9333     0.3279    15.9060 </r>
       <r>     4.0616     0.2574    15.9390 </r>
       <r>     4.1900     0.2040    15.9652 </r>
       <r>     4.3183     0.0524    15.9719 </r>
       <r>     4.4466     0.0584    15.9794 </r>
       <r>     4.5750     0.0239    15.9824 </r>
       <r>     4.7033     0.0721    15.9917 </r>
       <r>     4.8316     0.1689    16.0134 </r>
       <r>     4.9600     0.0350    16.0179 </r>
       <r>     5.0883     0.0299    16.0217 </r>
       <r>     5.2167     0.0540    16.0286 </r>
       <r>     5.3450     0.0080    16.0297 </r>
       <r>     5.4733     0.0245    16.0328 </r>
       <r>     5.6017     0.2398    16.0636 </r>
       <r>     5.7300     0.4649    16.1232 </r>
       <r>     5.8583     0.1786    16.1462 </r>
       <r>     5.9867     0.3996    16.1975 </r>
       <r>     6.1150     0.6559    16.2816 </r>
       <r>     6.2433     0.8573    16.3917 </r>
       <r>     6.3717     0.9836    16.5179 </r>
       <r>     6.5000     0.5868    16.5932 </r>
       <r>     6.6283     0.7393    16.6881 </r>
       <r>     6.7567     1.0166    16.8185 </r>
       <r>     6.8850     0.9460    16.9399 </r>
       <r>     7.0134     0.9372    17.0602 </r>
       <r>     7.1417     0.5326    17.1286 </r>
       <r>     7.2700     0.4797    17.1901 </r>
       <r>     7.3984     0.6251    17.2704 </r>
       <r>     7.5267     0.6841    17.3582 </r>
       <r>     7.6550     0.5120    17.4239 </r>
       <r>     7.7834     0.3251    17.4656 </r>
       <r>     7.9117     0.2999    17.5041 </r>
       <r>     8.0400     0.6449    17.5868 </r>
       <r>     8.1684     0.5946    17.6631 </r>
       <r>     8.2967     0.5265    17.7307 </r>
       <r>     8.4251     0.6785    17.8178 </r>
       <r>     8.5534     0.7231    17.9106 </r>
       <r>     8.6817     0.3552    17.9562 </r>
       <r>     8.8101     0.1168    17.9712 </r>
       <r>     8.9384     0.1545    17.9910 </r>
       <r>     9.0667     0.5696    18.0641 </r>
       <r>     9.1951     0.5267    18.1317 </r>
       <r>     9.3234     0.6495    18.2150 </r>
       <r>     9.4517     0.4433    18.2719 </r>
       <r>     9.5801     0.5973    18.3486 </r>
       <r>     9.7084     0.6154    18.4276 </r>
       <r>     9.8368     0.3869    18.4772 </r>
       <r>     9.9651     0.5478    18.5475 </r>
       <r>    10.0934     0.4266    18.6023 </r>
       <r>    10.2218     0.4621    18.6616 </r>
       <r>    10.3501     0.7804    18.7617 </r>
       <r>    10.4784     0.6904    18.8503 </r>
       <r>    10.6068     0.1686    18.8720 </r>
       <r>    10.7351     0.2530    18.9044 </r>
       <r>    10.8634     0.8544    19.0141 </r>
       <r>    10.9918     0.7631    19.1120 </r>
       <r>    11.1201     0.7968    19.2143 </r>
       <r>    11.2484     0.4662    19.2741 </r>
       <r>    11.3768     0.8530    19.3836 </r>
       <r>    11.5051     0.8162    19.4883 </r>
       <r>    11.6335     0.4232    19.5426 </r>
       <r>    11.7618     0.1494    19.5618 </r>
       <r>    11.8901     0.2550    19.5945 </r>
       <r>    12.0185     0.2375    19.6250 </r>
       <r>    12.1468     0.4557    19.6835 </r>
       <r>    12.2751     0.8422    19.7916 </r>
       <r>    12.4035     1.1766    19.9426 </r>
       <r>    12.5318     1.2064    20.0974 </r>
       <r>    12.6601     1.7572    20.3229 </r>
       <r>    12.7885     1.5093    20.5166 </r>
       <r>    12.9168     1.4461    20.7022 </r>
       <r>    13.0452     1.7984    20.9330 </r>
       <r>    13.1735     2.6882    21.2780 </r>
       <r>    13.3018     3.1646    21.6841 </r>
       <r>    13.4302     3.1003    22.0820 </r>
       <r>    13.5585     2.3473    22.3832 </r>
       <r>    13.6868     2.4025    22.6916 </r>
       <r>    13.8152     1.3987    22.8711 </r>
       <r>    13.9435     1.2670    23.0337 </r>
       <r>    14.0718     1.5113    23.2276 </r>
       <r>    14.2002     2.1070    23.4980 </r>
       <r>    14.3285     2.9297    23.8740 </r>
       <r>    14.4569     2.1940    24.1556 </r>
       <r>    14.5852     1.4441    24.3409 </r>
       <r>    14.7135     1.5246    24.5366 </r>
       <r>    14.8419     1.5935    24.7411 </r>
       <r>    14.9702     1.7241    24.9623 </r>
       <r>    15.0985     1.7117    25.1820 </r>
       <r>    15.2269     1.7046    25.4008 </r>
       <r>    15.3552     1.5359    25.5979 </r>
       <r>    15.4835     1.4216    25.7803 </r>
       <r>    15.6119     1.3182    25.9495 </r>
       <r>    15.7402     1.4456    26.1350 </r>
       <r>    15.8685     1.4783    26.3247 </r>
       <r>    15.9969     1.3985    26.5042 </r>
       <r>    16.1252     1.6658    26.7180 </r>
       <r>    16.2536     2.6677    27.0604 </r>
       <r>    16.3819     1.7364    27.2832 </r>
       <r>    16.5102     0.7910    27.3847 </r>
       <r>    16.6386     1.2174    27.5410 </r>
       <r>    16.7669     1.3786    27.7179 </r>
       <r>    16.8952     1.0675    27.8549 </r>
       <r>    17.0236     1.2319    28.0130 </r>
       <r>    17.1519     1.7310    28.2351 </r>
       <r>    17.2802     1.6357    28.4450 </r>
       <r>    17.4086     0.7795    28.5451 </r>
       <r>    17.5369     0.6338    28.6264 </r>
       <r>    17.6653     1.2535    28.7873 </r>
       <r>    17.7936     1.2454    28.9471 </r>
       <r>    17.9219     0.8097    29.0510 </r>
       <r>    18.0503     1.0142    29.1812 </r>
       <r>    18.1786     1.1391    29.3274 </r>
       <r>    18.3069     0.5034    29.3920 </r>
       <r>    18.4353     1.0806    29.5307 </r>
       <r>    18.5636     0.6400    29.6128 </r>
       <r>    18.6919     0.2150    29.6404 </r>
       <r>    18.8203     0.2939    29.6781 </r>
       <r>    18.9486     0.7135    29.7697 </r>
       <r>    19.0770     0.6352    29.8512 </r>
       <r>    19.2053     0.1815    29.8745 </r>
       <r>    19.3336     0.1694    29.8962 </r>
       <r>    19.4620     0.3359    29.9393 </r>
       <r>    19.5903     0.0630    29.9474 </r>
       <r>    19.7186     0.0708    29.9565 </r>
       <r>    19.8470     0.0583    29.9640 </r>
       <r>    19.9753     0.0054    29.9647 </r>
       <r>    20.1036     0.0687    29.9735 </r>
       <r>    20.2320     0.1721    29.9956 </r>
       <r>    20.3603     0.0340    29.9999 </r>
       <r>    20.4886     0.0004    30.0000 </r>
       <r>    20.6170     0.0000    30.0000 </r>
       <r>    20.7453     0.0000    30.0000 </r>
       <r>    20.8737     0.0000    30.0000 </r>
       <r>    21.0020     0.0000    30.0000 </r>
       <r>    21.1303     0.0000    30.0000 </r>
       <r>    21.2587     0.0000    30.0000 </r>
       <r>    21.3870     0.0000    30.0000 </r>
       <r>    21.5153     0.0000    30.0000 </r>
       <r>    21.6437     0.0000    30.0000 </r>
       <r>    21.7720     0.0000    30.0000 </r>
       <r>    21.9003     0.0000    30.0000 </r>
      </set>
     </set>
    </array>
   </total>
  </dos>
 </calculation>
 <structure name="finalpos" >
  <crystal>
   <varray name="basis" >
    <v>       2.44754191       0.00000000       0.00000000 </v>
    <v>      -1.22377096       2.11963347       0.00000000 </v>
    <v>       0.00000000       0.00000000       6.65079193 </v>
   </varray>
   <i name="volume">     34.50358869 </i>
   <varray name="rec_basis" >
    <v>       0.40857319       0.23588984       0.00000000 </v>
    <v>       0.00000000       0.47177968       0.00000000 </v>
    <v>       0.00000000       0.00000000       0.15035803 </v>
   </varray>
  </crystal>
  <varray name="positions" >
   <v>       0.00000000       0.00000000       0.00000000 </v>
   <v>       0.33333333       0.66666667       0.00000000 </v>
   <v>       0.33333333       0.66666667       0.50000000 </v>
   <v>       0.66666667       0.33333333       0.50000000 </v>
  </varray>
 </structure>
</modeling>
