unknown system                          
           1
     2.447542    0.000000    0.000000
    -1.223771    2.119633    0.000000
     0.000000    0.000000    6.650792
   C 
   4
Direct configuration=     1
   0.00000000  0.00000000  0.00000000
   0.33333333  0.66666667  0.00000000
   0.33333333  0.66666667  0.50000000
   0.66666667  0.33333333  0.50000000
