
  ___ ___ ___ _ _ _  
 |   |   |_  | | | | 
 | | | | | . | | | | 
 |__ |  _|___|_____|  21.6.0
 |___|_|             

User:   pfsuo@cu18
Date:   Tue Nov  9 16:19:59 2021
Arch:   x86_64
Pid:    40018
Python: 3.8.5
gpaw:   /home/pfsuo/data0/anaconda3/lib/python3.8/site-packages/gpaw-21.6.0-py3.8-linux-x86_64.egg/gpaw
_gpaw:  /home/pfsuo/data0/anaconda3/lib/python3.8/site-packages/
        _gpaw.cpython-38-x86_64-linux-gnu.so
ase:    /home/pfsuo/data0/anaconda3/lib/python3.8/site-packages/ase (version 3.22.0)
numpy:  /home/pfsuo/data0/anaconda3/lib/python3.8/site-packages/numpy (version 1.21.3)
scipy:  /home/pfsuo/data0/anaconda3/lib/python3.8/site-packages/scipy (version 1.7.1)
libxc:  4.3.4
units:  Angstrom and eV
cores: 16
OpenMP: True
OMP_NUM_THREADS: 1

Input parameters:
  convergence: {bands: occupied,
                density: 1e-06,
                eigenstates: 4e-08,
                energy: 0.0005,
                forces: inf}
  gpts: [14 14 35]
  kpts: [[0.         0.         0.        ],
         [0.003367   0.003367   0.        ],
         [0.00673401 0.00673401 0.        ],
         ...,
         [0.01123596 0.         0.5       ],
         [0.00561798 0.         0.5       ],
         [0.         0.         0.5       ]]
  mode: {ecut: 520.0,
         gammacentered: False,
         name: pw}
  nbands: 16
  occupations: {name: fermi-dirac,
                width: 0.01}
  symmetry: off

Initialize ...

C-setup:
  name: Carbon
  id: d60576a1f549371a163e72552ca58787
  Z: 6.0
  valence: 4
  core: 2
  charge: 0.0
  file: /home/pfsuo/software/gpaw-setups-0.9.20000/C.LDA.gz
  compensation charges: gauss, rc=0.20, lmax=2
  cutoffs: 1.14(filt), 1.14(core),
  valence states:
                energy  radius
    2s(2.00)   -13.639   0.635
    2p(2.00)    -5.414   0.635
    *s          13.573   0.635
    *p          21.797   0.635
    *d           0.000   0.635

  Using partial waves for C as LCAO basis

Reference energy: -4075.210151

Spin-paired calculation

Convergence criteria:
  Maximum total energy change: 0.0005 eV / electron
  Maximum integral of absolute density change: 1e-06 electrons
  Maximum integral of absolute eigenstate change: 4e-08 eV^2
  Maximum number of iterations: 333

Symmetries present (total): 1

  ( 1  0  0)
  ( 0  1  0)
  ( 0  0  1)

503 k-points
503 k-points in the irreducible part of the Brillouin zone
       k-points in crystal coordinates                weights
   0:     0.00000000    0.00000000    0.00000000       0.00198807
   1:     0.00336700    0.00336700    0.00000000       0.00198807
   2:     0.00673401    0.00673401    0.00000000       0.00198807
   3:     0.01010101    0.01010101    0.00000000       0.00198807
   4:     0.01346801    0.01346801    0.00000000       0.00198807
   5:     0.01683502    0.01683502    0.00000000       0.00198807
   6:     0.02020202    0.02020202    0.00000000       0.00198807
   7:     0.02356902    0.02356902    0.00000000       0.00198807
   8:     0.02693603    0.02693603    0.00000000       0.00198807
   9:     0.03030303    0.03030303    0.00000000       0.00198807
          ...
 502:     0.00000000    0.00000000    0.50000000       0.00198807

Wave functions: Plane wave expansion
  Cutoff energy: 520.000 eV
  Number of coefficients (min, max): 910, 948
  Pulay-stress correction: 0.000000 eV/Ang^3 (de/decut=0.000000)
  Using FFTW library
  ScaLapack parameters: grid=1x1, blocksize=None
  Wavefunction extrapolation:
    Improved wavefunction reuse through dual PAW basis 

Occupation numbers: Fermi-Dirac: width=0.0100 eV
 

Eigensolver
   Davidson(niter=2) 

Densities:
  Coarse grid: 14*14*35 grid
  Fine grid: 28*28*70 grid
  Total Charge: 0.000000 

Density mixing:
  Method: separate
  Backend: pulay
  Linear mixing parameter: 0.05
  Mixing with 5 old densities
  Damping of long wave oscillations: 50 

Hamiltonian:
  XC and Coulomb potentials evaluated on a 28*28*70 grid
  Using the LDA Exchange-Correlation functional
 

Memory estimate:
  Process memory now: 148.38 MiB
  Calculator: 15.51 MiB
    Density: 2.86 MiB
      Arrays: 1.36 MiB
      Localized functions: 0.98 MiB
      Mixer: 0.52 MiB
    Hamiltonian: 0.91 MiB
      Arrays: 0.89 MiB
      XC: 0.00 MiB
      Poisson: 0.00 MiB
      vbar: 0.02 MiB
    Wavefunctions: 11.74 MiB
      Arrays psit_nG: 7.17 MiB
      Eigensolver: 0.34 MiB
      Projections: 0.39 MiB
      Projectors: 3.12 MiB
      PW-descriptor: 0.71 MiB

Total number of cores used: 16
Parallelization over k-points: 16

Number of atoms: 4
Number of atomic orbitals: 16
Number of bands in calculation: 16
Number of valence electrons: 16
Bands to converge: occupied

... initialized

Initializing position-dependent things.

Creating initial wave functions:
  16 bands from LCAO basis set

                    
                    
                    
                    
        C  C        
                    
                    
                    
       CC           
                    
                    
                    
                    

Positions:
   0 C      0.000000    0.000000    0.000000    ( 0.0000,  0.0000,  0.0000)
   1 C      0.000000    1.413089    0.000000    ( 0.0000,  0.0000,  0.0000)
   2 C      0.000000    1.413089    3.325396    ( 0.0000,  0.0000,  0.0000)
   3 C      1.223771    0.706544    3.325396    ( 0.0000,  0.0000,  0.0000)

Unit cell:
           periodic     x           y           z      points  spacing
  1. axis:    yes    2.447542    0.000000   -0.000000    14     0.1514
  2. axis:    yes   -1.223771    2.119633    0.000000    14     0.1514
  3. axis:    yes    0.000000    0.000000    6.650792    35     0.1900

  Lengths:   2.447542   2.447542   6.650792
  Angles:   90.000000  90.000000 120.000000

Effective grid spacing dv^(1/3) = 0.1713

                     log10-error:    total        iterations:
           time      wfs    density  energy       poisson
iter:   1  16:20:07                 -37.515959           
iter:   2  16:20:07  -1.74          -37.536045           
iter:   3  16:20:08  -3.12          -37.536488           
iter:   4  16:20:08  -4.29          -37.536514           
iter:   5  16:20:09  -5.38          -37.536516           
iter:   6  16:20:09  -6.43          -37.536516           
iter:   7  16:20:09  -7.46          -37.536516           

Converged after 7 iterations.

Dipole moment: (-0.894676, 0.516542, 0.000000) |e|*Ang

Energy contributions relative to reference atoms: (reference = -4075.210151)

Kinetic:        +43.163477
Potential:      -40.042531
External:        +0.000000
XC:             -40.704123
Entropy (-ST):   -0.000226
Local:           +0.046774
--------------------------
Free energy:    -37.536629
Extrapolated:   -37.536516

Showing only first 2 kpts
 Kpt  Band  Eigenvalues  Occupancy
  0     6      3.15052    2.00000
  0     7      3.15052    2.00000
  0     8     10.02619    0.00000
  0     9     14.55270    0.00000

  1     6      3.14669    2.00000
  1     7      3.14817    2.00000
  1     8     10.02718    0.00000
  1     9     14.55312    0.00000


Fermi level: 6.11826

No gap
Timing:                              incl.     excl.
-----------------------------------------------------------
Hamiltonian:                         0.025     0.000   0.0% |
 Atomic:                             0.014     0.014   0.1% |
  XC Correction:                     0.000     0.000   0.0% |
 Calculate atomic Hamiltonians:      0.002     0.002   0.0% |
 Communicate:                        0.000     0.000   0.0% |
 Initialize Hamiltonian:             0.000     0.000   0.0% |
 Poisson:                            0.000     0.000   0.0% |
 XC 3D grid:                         0.008     0.008   0.1% |
LCAO initialization:                 6.979     0.019   0.2% |
 LCAO eigensolver:                   0.382     0.001   0.0% |
  Calculate projections:             0.001     0.001   0.0% |
  DenseAtomicCorrection:             0.003     0.003   0.0% |
  Distribute overlap matrix:         0.001     0.001   0.0% |
  Orbital Layouts:                   0.005     0.005   0.0% |
  Potential matrix:                  0.317     0.317   3.1% ||
  Sum over cells:                    0.055     0.055   0.5% |
 LCAO to grid:                       6.026     6.026  58.4% |----------------------|
 Set positions (LCAO WFS):           0.552     0.074   0.7% |
  Basic WFS set positions:           0.000     0.000   0.0% |
  Basis functions set positions:     0.000     0.000   0.0% |
  P tci:                             0.151     0.151   1.5% ||
  ST tci:                            0.299     0.299   2.9% ||
  mktci:                             0.027     0.027   0.3% |
PWDescriptor:                        0.011     0.011   0.1% |
SCF-cycle:                           3.022     0.350   3.4% ||
 Davidson:                           2.643     0.655   6.3% |--|
  Apply H:                           0.346     0.324   3.1% ||
   HMM T:                            0.023     0.023   0.2% |
  Subspace diag:                     0.484     0.015   0.1% |
   calc_h_matrix:                    0.401     0.051   0.5% |
    Apply H:                         0.350     0.324   3.1% ||
     HMM T:                          0.026     0.026   0.2% |
   diagonalize:                      0.039     0.039   0.4% |
   rotate_psi:                       0.030     0.030   0.3% |
  calc. matrices:                    0.986     0.294   2.9% ||
   Apply H:                          0.692     0.646   6.3% |--|
    HMM T:                           0.046     0.046   0.4% |
  diagonalize:                       0.121     0.121   1.2% |
  rotate_psi:                        0.052     0.052   0.5% |
 Orthonormalize:                     0.028     0.002   0.0% |
  calc_s_matrix:                     0.006     0.006   0.1% |
  inverse-cholesky:                  0.003     0.003   0.0% |
  projections:                       0.015     0.015   0.1% |
  rotate_psi_s:                      0.003     0.003   0.0% |
Set symmetry:                        0.000     0.000   0.0% |
Other:                               0.285     0.285   2.8% ||
-----------------------------------------------------------
Total:                                        10.322 100.0%

Memory usage: 182.40 MiB
Date: Tue Nov  9 16:20:09 2021
