 
             +---------------------------------------------------+
             |                                                   |
             |                   WANNIER90                       |
             |                                                   |
             +---------------------------------------------------+
             |                                                   |
             |        Welcome to the Maximally-Localized         |
             |        Generalized Wannier Functions code         |
             |            http://www.wannier.org                 |
             |                                                   |
             |                                                   |
             |  Wannier90 Developer Group:                       |
             |    Giovanni Pizzi    (EPFL)                       |
             |    Valerio Vitale    (Cambridge)                  |
             |    David Vanderbilt  (Rutgers University)         |
             |    Nicola Marzari    (EPFL)                       |
             |    Ivo Souza         (Universidad del Pais Vasco) |
             |    Arash A. Mostofi  (Imperial College London)    |
             |    Jonathan R. Yates (University of Oxford)       |
             |                                                   |
             |  For the full list of Wannier90 3.x authors,      |
             |  please check the code documentation and the      |
             |  README on the GitHub page of the code            |
             |                                                   |
             |                                                   |
             |  Please cite                                      |
             |                                                   |
             |  [ref] "Wannier90 as a community code:            |
             |        new features and applications",            |
             |        G. Pizzi et al., J. Phys. Cond. Matt. 32,  |
             |        165902 (2020).                             |
             |        http://doi.org/10.1088/1361-648X/ab51ff    |
             |                                                   |
             |  in any publications arising from the use of      |
             |  this code. For the method please cite            |
             |                                                   |
             |  [ref] "Maximally Localized Generalised Wannier   |
             |         Functions for Composite Energy Bands"     |
             |         N. Marzari and D. Vanderbilt              |
             |         Phys. Rev. B 56 12847 (1997)              |
             |                                                   |
             |  [ref] "Maximally Localized Wannier Functions     |
             |         for Entangled Energy Bands"               |
             |         I. Souza, N. Marzari and D. Vanderbilt    |
             |         Phys. Rev. B 65 035109 (2001)             |
             |                                                   |
             |                                                   |
             | Copyright (c) 1996-2020                           |
             |        The Wannier90 Developer Group and          |
             |        individual contributors                    |
             |                                                   |
             |      Release: 3.1.0        5th March    2020      |
             |                                                   |
             | This program is free software; you can            |
             | redistribute it and/or modify it under the terms  |
             | of the GNU General Public License as published by |
             | the Free Software Foundation; either version 2 of |
             | the License, or (at your option) any later version|
             |                                                   |
             | This program is distributed in the hope that it   |
             | will be useful, but WITHOUT ANY WARRANTY; without |
             | even the implied warranty of MERCHANTABILITY or   |
             | FITNESS FOR A PARTICULAR PURPOSE. See the GNU     |
             | General Public License for more details.          |
             |                                                   |
             | You should have received a copy of the GNU General|
             | Public License along with this program; if not,   |
             | write to the Free Software Foundation, Inc.,      |
             | 675 Mass Ave, Cambridge, MA 02139, USA.           |
             |                                                   |
             +---------------------------------------------------+
             |    Execution started on  9Nov2021 at 16:19:48     |
             +---------------------------------------------------+
 
 ******************************************************************************
 * -> Using CODATA 2006 constant values                                       *
 *    (http://physics.nist.gov/cuu/Constants/index.html)                      *
 * -> Using Bohr value from CODATA                                            *
 ******************************************************************************
 

 Running in parallel on  16 CPUs

 
                                    ------
                                    SYSTEM
                                    ------
 
                              Lattice Vectors (Ang)
                    a_1     2.447542   0.000000   0.000000
                    a_2    -1.223771   2.119633   0.000000
                    a_3     0.000000   0.000000   6.650792
 
                   Unit Cell Volume:      34.50359  (Ang^3)
 
                        Reciprocal-Space Vectors (Ang^-1)
                    b_1     2.567141   1.482140   0.000000
                    b_2     0.000000   2.964279   0.000000
                    b_3     0.000000   0.000000   0.944727
  
 *----------------------------------------------------------------------------*
 |   Site       Fractional Coordinate          Cartesian Coordinate (Ang)     |
 +----------------------------------------------------------------------------+
 | C    1   0.00000   0.00000   0.00000   |    0.00000   0.00000   0.00000    |
 | C    2   0.33333   0.66667   0.00000   |   -0.00000   1.41309   0.00000    |
 | C    3   0.33333   0.66667   0.50000   |   -0.00000   1.41309   3.32540    |
 | C    4   0.66667   0.33333   0.50000   |    1.22377   0.70654   3.32540    |
 *----------------------------------------------------------------------------*
                                ------------
                                K-POINT GRID
                                ------------
  
             Grid size = 15 x 15 x  3      Total points =  675
  
  
 *---------------------------------- MAIN ------------------------------------*
 |  Number of Wannier Functions               :                 4             |
 |  Number of Objective Wannier Functions     :                 4             |
 |  Number of input Bloch states              :                14             |
 |  Output verbosity (1=low, 5=high)          :                 1             |
 |  Timing Level (1=low, 5=high)              :                 1             |
 |  Optimisation (0=memory, 3=speed)          :                 3             |
 |  Length Unit                               :               Ang             |
 |  Post-processing setup (write *.nnkp)      :                 F             |
 |  Using Gamma-only branch of algorithms     :                 F             |
 *----------------------------------------------------------------------------*
 *------------------------------- WANNIERISE ---------------------------------*
 |  Total number of iterations                :               200             |
 |  Number of CG steps before reset           :                 5             |
 |  Trial step length for line search         :             2.000             |
 |  Convergence tolerence                     :         0.100E-09             |
 |  Convergence window                        :                -1             |
 |  Iterations between writing output         :                 1             |
 |  Iterations between backing up to disk     :               100             |
 |  Write r^2_nm to file                      :                 F             |
 |  Write xyz WF centres to file              :                 T             |
 |  Write on-site energies <0n|H|0n> to file  :                 F             |
 |  Use guiding centre to control phases      :                 T             |
 |  Use phases for initial projections        :                 F             |
 |  Iterations before starting guiding centres:                 0             |
 |  Iterations between using guiding centres  :                 1             |
 *----------------------------------------------------------------------------*
 *------------------------------- DISENTANGLE --------------------------------*
 |  Using band disentanglement                :                 T             |
 |  Total number of iterations                :             10000             |
 |  Mixing ratio                              :             0.500             |
 |  Convergence tolerence                     :         1.000E-10             |
 |  Convergence window                        :                 3             |
 *----------------------------------------------------------------------------*
 *-------------------------------- PLOTTING ----------------------------------*
 |  Plotting interpolated bandstructure       :                 T             |
 |   Number of K-path sections                :                 7             |
 |   Divisions along first K-path section     :               100             |
 |   Output format                            :           gnuplot             |
 |   Output mode                              :               s-k             |
 *----------------------------------------------------------------------------*
 |   K-space path sections:                                                   |
 |    From: G       0.000  0.000  0.000     To: K       0.333  0.333  0.000   |
 |    From: K       0.333  0.333  0.000     To: M       0.000  0.500  0.000   |
 |    From: M       0.000  0.500  0.000     To: G       0.000  0.000  0.000   |
 |    From: G       0.000  0.000  0.000     To: A       0.000  0.000  0.500   |
 |    From: A       0.000  0.000  0.500     To: H       0.333  0.333  0.500   |
 |    From: H       0.333  0.333  0.500     To: L       0.000  0.500  0.500   |
 |    From: L       0.000  0.500  0.500     To: A       0.000  0.000  0.500   |
 *----------------------------------------------------------------------------*
 |  Plotting Hamiltonian in WF basis          :                 T             |
 *----------------------------------------------------------------------------*
 Time to read parameters        0.052 (sec)

 *---------------------------------- K-MESH ----------------------------------*
 +----------------------------------------------------------------------------+
 |                    Distance to Nearest-Neighbour Shells                    |
 |                    ------------------------------------                    |
 |          Shell             Distance (Ang^-1)          Multiplicity         |
 |          -----             -----------------          ------------         |
 |             1                   0.197619                      6            |
 |             2                   0.314909                      2            |
 |             3                   0.342285                      6            |
 |             4                   0.371781                     12            |
 |             5                   0.395237                      6            |
 |             6                   0.465110                     12            |
 |             7                   0.505352                     12            |
 |             8                   0.522850                     12            |
 |             9                   0.592856                      6            |
 |            10                   0.610360                     24            |
 |            11                   0.629818                      2            |
 |            12                   0.660094                     12            |
 |            13                   0.671302                     12            |
 |            14                   0.684571                      6            |
 |            15                   0.712524                     12            |
 |            16                   0.716820                     12            |
 |            17                   0.743561                     12            |
 |            18                   0.753528                     12            |
 |            19                   0.779011                     24            |
 |            20                   0.790474                      6            |
 |            21                   0.818561                     24            |
 |            22                   0.850892                     12            |
 |            23                   0.861400                     12            |
 |            24                   0.864956                     12            |
 |            25                   0.905602                     12            |
 |            26                   0.917157                     24            |
 |            27                   0.930220                     12            |
 |            28                   0.944727                      2            |
 |            29                   0.950979                     24            |
 |            30                   0.958793                     24            |
 |            31                   0.965175                     12            |
 |            32                   0.988093                      6            |
 |            33                   1.004823                     12            |
 |            34                   1.010703                     12            |
 |            35                   1.024071                     12            |
 |            36                   1.026856                      6            |
 +----------------------------------------------------------------------------+
 | The b-vectors are chosen automatically                                     |
 | The following shells are used:   1,  2                                     |
 +----------------------------------------------------------------------------+
 |                        Shell   # Nearest-Neighbours                        |
 |                        -----   --------------------                        |
 |                          1               6                                 |
 |                          2               2                                 |
 +----------------------------------------------------------------------------+
 | Completeness relation is fully satisfied [Eq. (B1), PRB 56, 12847 (1997)]  |
 +----------------------------------------------------------------------------+
 |                  b_k Vectors (Ang^-1) and Weights (Ang^2)                  |
 |                  ----------------------------------------                  |
 |            No.         b_k(x)      b_k(y)      b_k(z)        w_b           |
 |            ---        --------------------------------     --------        |
 |             1         0.000000    0.197619    0.000000     8.535384        |
 |             2         0.171143    0.098809    0.000000     8.535384        |
 |             3         0.000000   -0.197619    0.000000     8.535384        |
 |             4         0.171143   -0.098809    0.000000     8.535384        |
 |             5        -0.171143   -0.098809    0.000000     8.535384        |
 |             6        -0.171143    0.098809    0.000000     8.535384        |
 |             7         0.000000    0.000000    0.314909     5.041961        |
 |             8         0.000000    0.000000   -0.314909     5.041961        |
 +----------------------------------------------------------------------------+
 |                           b_k Directions (Ang^-1)                          |
 |                           -----------------------                          |
 |            No.           x           y           z                         |
 |            ---        --------------------------------                     |
 |             1         0.000000    0.197619    0.000000                     |
 |             2         0.171143    0.098809    0.000000                     |
 |             3         0.171143   -0.098809    0.000000                     |
 |             4         0.000000    0.000000    0.314909                     |
 +----------------------------------------------------------------------------+
  
 Time to get kmesh              0.395 (sec)
 *============================================================================*
 |                              MEMORY ESTIMATE                               |
 |         Maximum RAM allocated during each phase of the calculation         |
 *============================================================================*
 |                        Disentanglement           22.01 Mb                  |
 |                            Wannierise:            5.03 Mb                  |
 |                          plot_wannier:            5.03 Mb                  |
 *----------------------------------------------------------------------------*
  
 Starting a new Wannier90 calculation ...


 Reading overlaps from gra.mmn    : Kohn-Sham input generated from GPAW calculation

 Reading projections from gra.amn : Kohn-Sham input generated from GPAW calculation

 Time to read overlaps          0.865 (sec)

 *------------------------------- DISENTANGLE --------------------------------*
 +----------------------------------------------------------------------------+
 |                              Energy  Windows                               |
 |                              ---------------                               |
 |                   Outer:   -7.09880  to   18.00000  (eV)                   |
 |                   No frozen states were specified                          |
 +----------------------------------------------------------------------------+
   Number of target bands to extract:    4

                   Unitarised projection of Wannier functions                  
                   ------------------------------------------                  
   A_mn = <psi_m|g_n> --> S = A.A^+ --> U = S^-1/2.A
   In dis_project... done
   No inner window (linner = F)

                   Extraction of optimally-connected subspace                  
                   ------------------------------------------                  
 +---------------------------------------------------------------------+<-- DIS
 |  Iter     Omega_I(i-1)      Omega_I(i)      Delta (frac.)    Time   |<-- DIS
 +---------------------------------------------------------------------+<-- DIS
       1      11.90471483      10.50817063       1.329E-01      0.00    <-- DIS
       2      11.14502317      10.05446365       1.085E-01      0.00    <-- DIS
       3      10.55484345       9.71656115       8.627E-02      0.00    <-- DIS
       4      10.10069799       9.45106300       6.874E-02      0.01    <-- DIS
       5       9.74774558       9.23661131       5.534E-02      0.01    <-- DIS
       6       9.46909910       9.06004280       4.515E-02      0.01    <-- DIS
       7       9.24534261       8.91249665       3.735E-02      0.01    <-- DIS
       8       9.06269705       8.78770011       3.129E-02      0.02    <-- DIS
       9       8.91136574       8.68105241       2.653E-02      0.02    <-- DIS
      10       8.78430430       8.58908841       2.273E-02      0.02    <-- DIS
      11       8.67636610       8.50914457       1.965E-02      0.02    <-- DIS
      12       8.58372429       8.43914028       1.713E-02      0.02    <-- DIS
      13       8.50348314       8.37742908       1.505E-02      0.03    <-- DIS
      14       8.43341540       8.32269382       1.330E-02      0.03    <-- DIS
      15       8.37178255       8.27387105       1.183E-02      0.03    <-- DIS
      16       8.31720980       8.23009514       1.058E-02      0.03    <-- DIS
      17       8.26859753       8.19065631       9.516E-03      0.04    <-- DIS
      18       8.22505739       8.15496863       8.595E-03      0.04    <-- DIS
      19       8.18586531       8.12254542       7.796E-03      0.04    <-- DIS
      20       8.15042643       8.09297994       7.098E-03      0.04    <-- DIS
      21       8.11824847       8.06593034       6.486E-03      0.04    <-- DIS
      22       8.08892132       8.04110767       5.946E-03      0.05    <-- DIS
      23       8.06210111       8.01826631       5.467E-03      0.05    <-- DIS
      24       8.03749779       7.99719638       5.039E-03      0.05    <-- DIS
      25       8.01486525       7.97771752       4.656E-03      0.05    <-- DIS
      26       7.99399347       7.95967392       4.312E-03      0.05    <-- DIS
      27       7.97470219       7.94293026       4.000E-03      0.06    <-- DIS
      28       7.95683588       7.92736839       3.717E-03      0.06    <-- DIS
      29       7.94025958       7.91288464       3.460E-03      0.06    <-- DIS
      30       7.92485556       7.89938755       3.224E-03      0.06    <-- DIS
      31       7.91052058       7.88679608       3.008E-03      0.06    <-- DIS
      32       7.89716366       7.87503803       2.810E-03      0.07    <-- DIS
      33       7.88470418       7.86404883       2.627E-03      0.07    <-- DIS
      34       7.87307040       7.85377044       2.457E-03      0.07    <-- DIS
      35       7.86219818       7.84415052       2.301E-03      0.07    <-- DIS
      36       7.85202989       7.83514162       2.155E-03      0.07    <-- DIS
      37       7.84251357       7.82670065       2.020E-03      0.08    <-- DIS
      38       7.83360216       7.81878826       1.895E-03      0.08    <-- DIS
      39       7.82525291       7.81136847       1.777E-03      0.08    <-- DIS
      40       7.81742682       7.80440825       1.668E-03      0.08    <-- DIS
      41       7.81008822       7.79787720       1.566E-03      0.08    <-- DIS
      42       7.80320438       7.79174730       1.470E-03      0.08    <-- DIS
      43       7.79674519       7.78599262       1.381E-03      0.09    <-- DIS
      44       7.79068287       7.78058915       1.297E-03      0.09    <-- DIS
      45       7.78499177       7.77551463       1.219E-03      0.09    <-- DIS
      46       7.77964811       7.77074834       1.145E-03      0.09    <-- DIS
      47       7.77462983       7.76627101       1.076E-03      0.09    <-- DIS
      48       7.76991645       7.76206469       1.012E-03      0.10    <-- DIS
      49       7.76548888       7.75811261       9.508E-04      0.10    <-- DIS
      50       7.76132934       7.75439912       8.937E-04      0.10    <-- DIS
      51       7.75742127       7.75090958       8.401E-04      0.10    <-- DIS
      52       7.75374916       7.74763032       7.898E-04      0.10    <-- DIS
      53       7.75029854       7.74454851       7.425E-04      0.11    <-- DIS
      54       7.74705587       7.74165215       6.980E-04      0.11    <-- DIS
      55       7.74400847       7.73892998       6.562E-04      0.11    <-- DIS
      56       7.74114446       7.73637146       6.170E-04      0.11    <-- DIS
      57       7.73845271       7.73396668       5.800E-04      0.12    <-- DIS
      58       7.73592279       7.73170637       5.453E-04      0.12    <-- DIS
      59       7.73354490       7.72958179       5.127E-04      0.12    <-- DIS
      60       7.73130986       7.72758477       4.821E-04      0.12    <-- DIS
      61       7.72920904       7.72570762       4.532E-04      0.12    <-- DIS
      62       7.72723436       7.72394311       4.261E-04      0.13    <-- DIS
      63       7.72537820       7.72228447       4.006E-04      0.13    <-- DIS
      64       7.72363343       7.72072531       3.767E-04      0.13    <-- DIS
      65       7.72199333       7.71925966       3.541E-04      0.13    <-- DIS
      66       7.72045161       7.71788188       3.330E-04      0.13    <-- DIS
      67       7.71900235       7.71658668       3.130E-04      0.13    <-- DIS
      68       7.71763997       7.71536909       2.943E-04      0.14    <-- DIS
      69       7.71635924       7.71422445       2.767E-04      0.14    <-- DIS
      70       7.71515526       7.71314834       2.602E-04      0.14    <-- DIS
      71       7.71402339       7.71213666       2.446E-04      0.14    <-- DIS
      72       7.71295930       7.71118552       2.300E-04      0.14    <-- DIS
      73       7.71195891       7.71029127       2.163E-04      0.15    <-- DIS
      74       7.71101837       7.70945048       2.034E-04      0.15    <-- DIS
      75       7.71013408       7.70865993       1.912E-04      0.15    <-- DIS
      76       7.70930266       7.70791659       1.798E-04      0.15    <-- DIS
      77       7.70852091       7.70721761       1.691E-04      0.15    <-- DIS
      78       7.70778584       7.70656032       1.590E-04      0.16    <-- DIS
      79       7.70709463       7.70594220       1.496E-04      0.16    <-- DIS
      80       7.70644463       7.70536088       1.406E-04      0.16    <-- DIS
      81       7.70583337       7.70481415       1.323E-04      0.16    <-- DIS
      82       7.70525849       7.70429991       1.244E-04      0.16    <-- DIS
      83       7.70471781       7.70381620       1.170E-04      0.17    <-- DIS
      84       7.70420926       7.70336118       1.101E-04      0.17    <-- DIS
      85       7.70373090       7.70293312       1.036E-04      0.17    <-- DIS
      86       7.70328090       7.70253038       9.744E-05      0.17    <-- DIS
      87       7.70285755       7.70215142       9.168E-05      0.17    <-- DIS
      88       7.70245923       7.70179483       8.627E-05      0.18    <-- DIS
      89       7.70208444       7.70145923       8.118E-05      0.18    <-- DIS
      90       7.70173176       7.70114336       7.640E-05      0.18    <-- DIS
      91       7.70139983       7.70084603       7.191E-05      0.18    <-- DIS
      92       7.70108741       7.70056611       6.770E-05      0.18    <-- DIS
      93       7.70079332       7.70030256       6.373E-05      0.19    <-- DIS
      94       7.70051645       7.70005437       6.001E-05      0.19    <-- DIS
      95       7.70025576       7.69982062       5.651E-05      0.19    <-- DIS
      96       7.70001026       7.69960044       5.323E-05      0.19    <-- DIS
      97       7.69977903       7.69939300       5.014E-05      0.20    <-- DIS
      98       7.69956122       7.69919754       4.724E-05      0.20    <-- DIS
      99       7.69935601       7.69901331       4.451E-05      0.20    <-- DIS
     100       7.69916264       7.69883966       4.195E-05      0.20    <-- DIS
     101       7.69898038       7.69867593       3.955E-05      0.20    <-- DIS
     102       7.69880857       7.69852152       3.729E-05      0.20    <-- DIS
     103       7.69864658       7.69837588       3.516E-05      0.21    <-- DIS
     104       7.69849380       7.69823846       3.317E-05      0.21    <-- DIS
     105       7.69834968       7.69810877       3.130E-05      0.21    <-- DIS
     106       7.69821370       7.69798634       2.953E-05      0.21    <-- DIS
     107       7.69808537       7.69787074       2.788E-05      0.21    <-- DIS
     108       7.69796421       7.69776155       2.633E-05      0.22    <-- DIS
     109       7.69784980       7.69765837       2.487E-05      0.22    <-- DIS
     110       7.69774173       7.69756086       2.350E-05      0.22    <-- DIS
     111       7.69763960       7.69746865       2.221E-05      0.22    <-- DIS
     112       7.69754308       7.69738144       2.100E-05      0.22    <-- DIS
     113       7.69745180       7.69729892       1.986E-05      0.23    <-- DIS
     114       7.69736546       7.69722081       1.879E-05      0.23    <-- DIS
     115       7.69728376       7.69714683       1.779E-05      0.23    <-- DIS
     116       7.69720642       7.69707674       1.685E-05      0.23    <-- DIS
     117       7.69713317       7.69701031       1.596E-05      0.23    <-- DIS
     118       7.69706376       7.69694731       1.513E-05      0.24    <-- DIS
     119       7.69699797       7.69688754       1.435E-05      0.24    <-- DIS
     120       7.69693557       7.69683080       1.361E-05      0.24    <-- DIS
     121       7.69687636       7.69677690       1.292E-05      0.24    <-- DIS
     122       7.69682015       7.69672568       1.227E-05      0.24    <-- DIS
     123       7.69676675       7.69667697       1.166E-05      0.25    <-- DIS
     124       7.69671599       7.69663063       1.109E-05      0.25    <-- DIS
     125       7.69666773       7.69658650       1.055E-05      0.25    <-- DIS
     126       7.69662180       7.69654446       1.005E-05      0.25    <-- DIS
     127       7.69657806       7.69650438       9.573E-06      0.25    <-- DIS
     128       7.69653638       7.69646614       9.127E-06      0.26    <-- DIS
     129       7.69649664       7.69642963       8.707E-06      0.26    <-- DIS
     130       7.69645873       7.69639475       8.313E-06      0.26    <-- DIS
     131       7.69642252       7.69636139       7.943E-06      0.26    <-- DIS
     132       7.69638792       7.69632947       7.594E-06      0.26    <-- DIS
     133       7.69635484       7.69629891       7.267E-06      0.27    <-- DIS
     134       7.69632317       7.69626961       6.960E-06      0.27    <-- DIS
     135       7.69629284       7.69624150       6.671E-06      0.27    <-- DIS
     136       7.69626376       7.69621451       6.399E-06      0.27    <-- DIS
     137       7.69623587       7.69618858       6.144E-06      0.27    <-- DIS
     138       7.69620908       7.69616364       5.904E-06      0.28    <-- DIS
     139       7.69618333       7.69613963       5.678E-06      0.28    <-- DIS
     140       7.69615856       7.69611649       5.466E-06      0.28    <-- DIS
     141       7.69613471       7.69609418       5.267E-06      0.28    <-- DIS
     142       7.69611173       7.69607264       5.079E-06      0.28    <-- DIS
     143       7.69608956       7.69605183       4.903E-06      0.29    <-- DIS
     144       7.69606816       7.69603170       4.737E-06      0.29    <-- DIS
     145       7.69604747       7.69601221       4.582E-06      0.29    <-- DIS
     146       7.69602747       7.69599333       4.435E-06      0.29    <-- DIS
     147       7.69600809       7.69597502       4.297E-06      0.29    <-- DIS
     148       7.69598932       7.69595724       4.168E-06      0.30    <-- DIS
     149       7.69597111       7.69593997       4.046E-06      0.30    <-- DIS
     150       7.69595342       7.69592317       3.931E-06      0.30    <-- DIS
     151       7.69593624       7.69590681       3.824E-06      0.30    <-- DIS
     152       7.69591952       7.69589087       3.722E-06      0.30    <-- DIS
     153       7.69590324       7.69587533       3.627E-06      0.31    <-- DIS
     154       7.69588738       7.69586015       3.537E-06      0.31    <-- DIS
     155       7.69587190       7.69584533       3.453E-06      0.31    <-- DIS
     156       7.69585679       7.69583083       3.374E-06      0.31    <-- DIS
     157       7.69584203       7.69581664       3.299E-06      0.31    <-- DIS
     158       7.69582759       7.69580274       3.229E-06      0.32    <-- DIS
     159       7.69581345       7.69578911       3.163E-06      0.32    <-- DIS
     160       7.69579960       7.69577574       3.100E-06      0.32    <-- DIS
     161       7.69578602       7.69576261       3.042E-06      0.32    <-- DIS
     162       7.69577270       7.69574971       2.987E-06      0.32    <-- DIS
     163       7.69575961       7.69573703       2.935E-06      0.32    <-- DIS
     164       7.69574675       7.69572454       2.886E-06      0.33    <-- DIS
     165       7.69573411       7.69571225       2.840E-06      0.33    <-- DIS
     166       7.69572166       7.69570014       2.797E-06      0.33    <-- DIS
     167       7.69570940       7.69568819       2.756E-06      0.33    <-- DIS
     168       7.69569732       7.69567640       2.718E-06      0.34    <-- DIS
     169       7.69568540       7.69566477       2.681E-06      0.34    <-- DIS
     170       7.69567364       7.69565327       2.647E-06      0.34    <-- DIS
     171       7.69566203       7.69564190       2.615E-06      0.34    <-- DIS
     172       7.69565056       7.69563066       2.585E-06      0.34    <-- DIS
     173       7.69563922       7.69561954       2.557E-06      0.34    <-- DIS
     174       7.69562800       7.69560853       2.530E-06      0.35    <-- DIS
     175       7.69561690       7.69559763       2.505E-06      0.35    <-- DIS
     176       7.69560591       7.69558682       2.481E-06      0.35    <-- DIS
     177       7.69559502       7.69557610       2.458E-06      0.35    <-- DIS
     178       7.69558423       7.69556548       2.437E-06      0.35    <-- DIS
     179       7.69557353       7.69555493       2.417E-06      0.36    <-- DIS
     180       7.69556292       7.69554446       2.398E-06      0.36    <-- DIS
     181       7.69555239       7.69553407       2.381E-06      0.36    <-- DIS
     182       7.69554194       7.69552375       2.364E-06      0.36    <-- DIS
     183       7.69553156       7.69551349       2.348E-06      0.36    <-- DIS
     184       7.69552125       7.69550329       2.333E-06      0.37    <-- DIS
     185       7.69551100       7.69549315       2.319E-06      0.37    <-- DIS
     186       7.69550081       7.69548307       2.306E-06      0.37    <-- DIS
     187       7.69549068       7.69547304       2.294E-06      0.37    <-- DIS
     188       7.69548061       7.69546305       2.282E-06      0.37    <-- DIS
     189       7.69547059       7.69545311       2.271E-06      0.38    <-- DIS
     190       7.69546061       7.69544322       2.260E-06      0.38    <-- DIS
     191       7.69545068       7.69543337       2.250E-06      0.38    <-- DIS
     192       7.69544080       7.69542355       2.241E-06      0.38    <-- DIS
     193       7.69543095       7.69541378       2.232E-06      0.38    <-- DIS
     194       7.69542114       7.69540403       2.224E-06      0.39    <-- DIS
     195       7.69541137       7.69539432       2.216E-06      0.39    <-- DIS
     196       7.69540164       7.69538464       2.208E-06      0.39    <-- DIS
     197       7.69539193       7.69537499       2.201E-06      0.39    <-- DIS
     198       7.69538226       7.69536537       2.195E-06      0.39    <-- DIS
     199       7.69537261       7.69535577       2.188E-06      0.40    <-- DIS
     200       7.69536300       7.69534620       2.183E-06      0.40    <-- DIS
     201       7.69535340       7.69533665       2.177E-06      0.40    <-- DIS
     202       7.69534384       7.69532713       2.172E-06      0.40    <-- DIS
     203       7.69533429       7.69531762       2.167E-06      0.40    <-- DIS
     204       7.69532477       7.69530813       2.162E-06      0.41    <-- DIS
     205       7.69531527       7.69529866       2.157E-06      0.41    <-- DIS
     206       7.69530578       7.69528921       2.153E-06      0.41    <-- DIS
     207       7.69529632       7.69527978       2.149E-06      0.41    <-- DIS
     208       7.69528687       7.69527036       2.146E-06      0.41    <-- DIS
     209       7.69527744       7.69526096       2.142E-06      0.42    <-- DIS
     210       7.69526802       7.69525157       2.139E-06      0.42    <-- DIS
     211       7.69525862       7.69524219       2.135E-06      0.42    <-- DIS
     212       7.69524924       7.69523283       2.132E-06      0.42    <-- DIS
     213       7.69523986       7.69522347       2.130E-06      0.42    <-- DIS
     214       7.69523050       7.69521413       2.127E-06      0.43    <-- DIS
     215       7.69522115       7.69520480       2.124E-06      0.43    <-- DIS
     216       7.69521181       7.69519548       2.122E-06      0.43    <-- DIS
     217       7.69520248       7.69518617       2.120E-06      0.43    <-- DIS
     218       7.69519316       7.69517687       2.118E-06      0.43    <-- DIS
     219       7.69518385       7.69516757       2.116E-06      0.44    <-- DIS
     220       7.69517455       7.69515829       2.114E-06      0.44    <-- DIS
     221       7.69516526       7.69514901       2.112E-06      0.44    <-- DIS
     222       7.69515598       7.69513974       2.110E-06      0.44    <-- DIS
     223       7.69514670       7.69513047       2.109E-06      0.44    <-- DIS
     224       7.69513743       7.69512121       2.107E-06      0.45    <-- DIS
     225       7.69512816       7.69511196       2.106E-06      0.45    <-- DIS
     226       7.69511891       7.69510271       2.104E-06      0.45    <-- DIS
     227       7.69510965       7.69509347       2.103E-06      0.45    <-- DIS
     228       7.69510041       7.69508423       2.102E-06      0.45    <-- DIS
     229       7.69509117       7.69507500       2.101E-06      0.46    <-- DIS
     230       7.69508193       7.69506577       2.100E-06      0.46    <-- DIS
     231       7.69507270       7.69505655       2.099E-06      0.46    <-- DIS
     232       7.69506347       7.69504732       2.098E-06      0.46    <-- DIS
     233       7.69505424       7.69503811       2.097E-06      0.46    <-- DIS
     234       7.69504502       7.69502889       2.096E-06      0.47    <-- DIS
     235       7.69503581       7.69501968       2.095E-06      0.47    <-- DIS
     236       7.69502659       7.69501047       2.095E-06      0.47    <-- DIS
     237       7.69501738       7.69500127       2.094E-06      0.47    <-- DIS
     238       7.69500818       7.69499207       2.094E-06      0.47    <-- DIS
     239       7.69499897       7.69498286       2.093E-06      0.47    <-- DIS
     240       7.69498977       7.69497367       2.092E-06      0.48    <-- DIS
     241       7.69498057       7.69496447       2.092E-06      0.48    <-- DIS
     242       7.69497137       7.69495527       2.092E-06      0.48    <-- DIS
     243       7.69496217       7.69494608       2.091E-06      0.48    <-- DIS
     244       7.69495298       7.69493689       2.091E-06      0.49    <-- DIS
     245       7.69494379       7.69492770       2.090E-06      0.49    <-- DIS
     246       7.69493459       7.69491851       2.090E-06      0.49    <-- DIS
     247       7.69492540       7.69490932       2.090E-06      0.49    <-- DIS
     248       7.69491621       7.69490013       2.090E-06      0.49    <-- DIS
     249       7.69490703       7.69489095       2.089E-06      0.49    <-- DIS
     250       7.69489784       7.69488176       2.089E-06      0.50    <-- DIS
     251       7.69488865       7.69487258       2.089E-06      0.50    <-- DIS
     252       7.69487947       7.69486339       2.089E-06      0.50    <-- DIS
     253       7.69487028       7.69485421       2.089E-06      0.50    <-- DIS
     254       7.69486110       7.69484503       2.089E-06      0.51    <-- DIS
     255       7.69485191       7.69483584       2.089E-06      0.51    <-- DIS
     256       7.69484273       7.69482666       2.089E-06      0.51    <-- DIS
     257       7.69483355       7.69481747       2.089E-06      0.51    <-- DIS
     258       7.69482436       7.69480829       2.089E-06      0.51    <-- DIS
     259       7.69481518       7.69479911       2.089E-06      0.52    <-- DIS
     260       7.69480600       7.69478992       2.089E-06      0.52    <-- DIS
     261       7.69479681       7.69478074       2.089E-06      0.52    <-- DIS
     262       7.69478763       7.69477156       2.089E-06      0.52    <-- DIS
     263       7.69477844       7.69476237       2.089E-06      0.52    <-- DIS
     264       7.69476926       7.69475319       2.089E-06      0.53    <-- DIS
     265       7.69476007       7.69474400       2.089E-06      0.53    <-- DIS
     266       7.69475089       7.69473481       2.089E-06      0.53    <-- DIS
     267       7.69474170       7.69472563       2.089E-06      0.53    <-- DIS
     268       7.69473252       7.69471644       2.089E-06      0.53    <-- DIS
     269       7.69472333       7.69470725       2.090E-06      0.54    <-- DIS
     270       7.69471414       7.69469806       2.090E-06      0.54    <-- DIS
     271       7.69470495       7.69468887       2.090E-06      0.54    <-- DIS
     272       7.69469576       7.69467968       2.090E-06      0.54    <-- DIS
     273       7.69468657       7.69467049       2.090E-06      0.54    <-- DIS
     274       7.69467738       7.69466130       2.091E-06      0.55    <-- DIS
     275       7.69466819       7.69465210       2.091E-06      0.55    <-- DIS
     276       7.69465900       7.69464291       2.091E-06      0.55    <-- DIS
     277       7.69464980       7.69463371       2.091E-06      0.55    <-- DIS
     278       7.69464061       7.69462451       2.092E-06      0.55    <-- DIS
     279       7.69463141       7.69461532       2.092E-06      0.56    <-- DIS
     280       7.69462221       7.69460612       2.092E-06      0.56    <-- DIS
     281       7.69461301       7.69459692       2.092E-06      0.56    <-- DIS
     282       7.69460381       7.69458771       2.093E-06      0.56    <-- DIS
     283       7.69459461       7.69457851       2.093E-06      0.56    <-- DIS
     284       7.69458541       7.69456930       2.093E-06      0.57    <-- DIS
     285       7.69457621       7.69456010       2.094E-06      0.57    <-- DIS
     286       7.69456700       7.69455089       2.094E-06      0.57    <-- DIS
     287       7.69455779       7.69454168       2.094E-06      0.57    <-- DIS
     288       7.69454859       7.69453247       2.095E-06      0.57    <-- DIS
     289       7.69453938       7.69452326       2.095E-06      0.58    <-- DIS
     290       7.69453017       7.69451404       2.095E-06      0.58    <-- DIS
     291       7.69452095       7.69450483       2.096E-06      0.58    <-- DIS
     292       7.69451174       7.69449561       2.096E-06      0.58    <-- DIS
     293       7.69450252       7.69448639       2.096E-06      0.58    <-- DIS
     294       7.69449331       7.69447717       2.097E-06      0.59    <-- DIS
     295       7.69448409       7.69446795       2.097E-06      0.59    <-- DIS
     296       7.69447487       7.69445873       2.097E-06      0.59    <-- DIS
     297       7.69446564       7.69444950       2.098E-06      0.59    <-- DIS
     298       7.69445642       7.69444028       2.098E-06      0.59    <-- DIS
     299       7.69444719       7.69443105       2.099E-06      0.60    <-- DIS
     300       7.69443797       7.69442182       2.099E-06      0.60    <-- DIS
     301       7.69442874       7.69441259       2.099E-06      0.60    <-- DIS
     302       7.69441951       7.69440335       2.100E-06      0.60    <-- DIS
     303       7.69441028       7.69439412       2.100E-06      0.60    <-- DIS
     304       7.69440104       7.69438488       2.101E-06      0.61    <-- DIS
     305       7.69439181       7.69437564       2.101E-06      0.61    <-- DIS
     306       7.69438257       7.69436640       2.101E-06      0.61    <-- DIS
     307       7.69437333       7.69435716       2.102E-06      0.61    <-- DIS
     308       7.69436409       7.69434791       2.102E-06      0.61    <-- DIS
     309       7.69435484       7.69433867       2.103E-06      0.62    <-- DIS
     310       7.69434560       7.69432942       2.103E-06      0.62    <-- DIS
     311       7.69433635       7.69432017       2.103E-06      0.62    <-- DIS
     312       7.69432710       7.69431092       2.104E-06      0.62    <-- DIS
     313       7.69431785       7.69430166       2.104E-06      0.62    <-- DIS
     314       7.69430860       7.69429241       2.105E-06      0.63    <-- DIS
     315       7.69429935       7.69428315       2.105E-06      0.63    <-- DIS
     316       7.69429009       7.69427389       2.106E-06      0.63    <-- DIS
     317       7.69428083       7.69426463       2.106E-06      0.63    <-- DIS
     318       7.69427157       7.69425537       2.106E-06      0.63    <-- DIS
     319       7.69426231       7.69424610       2.107E-06      0.64    <-- DIS
     320       7.69425305       7.69423683       2.107E-06      0.64    <-- DIS
     321       7.69424378       7.69422757       2.108E-06      0.64    <-- DIS
     322       7.69423451       7.69421829       2.108E-06      0.64    <-- DIS
     323       7.69422525       7.69420902       2.109E-06      0.64    <-- DIS
     324       7.69421597       7.69419975       2.109E-06      0.65    <-- DIS
     325       7.69420670       7.69419047       2.109E-06      0.65    <-- DIS
     326       7.69419743       7.69418119       2.110E-06      0.65    <-- DIS
     327       7.69418815       7.69417191       2.110E-06      0.65    <-- DIS
     328       7.69417887       7.69416263       2.111E-06      0.65    <-- DIS
     329       7.69416959       7.69415335       2.111E-06      0.66    <-- DIS
     330       7.69416031       7.69414406       2.112E-06      0.66    <-- DIS
     331       7.69415102       7.69413477       2.112E-06      0.66    <-- DIS
     332       7.69414174       7.69412548       2.113E-06      0.66    <-- DIS
     333       7.69413245       7.69411619       2.113E-06      0.66    <-- DIS
     334       7.69412316       7.69410690       2.113E-06      0.67    <-- DIS
     335       7.69411386       7.69409760       2.114E-06      0.67    <-- DIS
     336       7.69410457       7.69408830       2.114E-06      0.67    <-- DIS
     337       7.69409527       7.69407900       2.115E-06      0.67    <-- DIS
     338       7.69408598       7.69406970       2.115E-06      0.67    <-- DIS
     339       7.69407668       7.69406040       2.116E-06      0.68    <-- DIS
     340       7.69406738       7.69405109       2.116E-06      0.68    <-- DIS
     341       7.69405807       7.69404179       2.116E-06      0.68    <-- DIS
     342       7.69404877       7.69403248       2.117E-06      0.68    <-- DIS
     343       7.69403946       7.69402317       2.117E-06      0.68    <-- DIS
     344       7.69403015       7.69401386       2.118E-06      0.68    <-- DIS
     345       7.69402084       7.69400454       2.118E-06      0.69    <-- DIS
     346       7.69401153       7.69399523       2.119E-06      0.69    <-- DIS
     347       7.69400221       7.69398591       2.119E-06      0.69    <-- DIS
     348       7.69399290       7.69397659       2.119E-06      0.69    <-- DIS
     349       7.69398358       7.69396727       2.120E-06      0.69    <-- DIS
     350       7.69397426       7.69395795       2.120E-06      0.70    <-- DIS
     351       7.69396494       7.69394862       2.121E-06      0.70    <-- DIS
     352       7.69395561       7.69393929       2.121E-06      0.70    <-- DIS
     353       7.69394629       7.69392997       2.121E-06      0.70    <-- DIS
     354       7.69393696       7.69392064       2.122E-06      0.70    <-- DIS
     355       7.69392763       7.69391130       2.122E-06      0.71    <-- DIS
     356       7.69391830       7.69390197       2.123E-06      0.71    <-- DIS
     357       7.69390897       7.69389263       2.123E-06      0.71    <-- DIS
     358       7.69389963       7.69388330       2.123E-06      0.71    <-- DIS
     359       7.69389030       7.69387396       2.124E-06      0.71    <-- DIS
     360       7.69388096       7.69386462       2.124E-06      0.72    <-- DIS
     361       7.69387162       7.69385528       2.124E-06      0.72    <-- DIS
     362       7.69386228       7.69384593       2.125E-06      0.72    <-- DIS
     363       7.69385294       7.69383659       2.125E-06      0.72    <-- DIS
     364       7.69384360       7.69382724       2.126E-06      0.72    <-- DIS
     365       7.69383425       7.69381789       2.126E-06      0.73    <-- DIS
     366       7.69382490       7.69380854       2.126E-06      0.73    <-- DIS
     367       7.69381555       7.69379919       2.127E-06      0.73    <-- DIS
     368       7.69380620       7.69378984       2.127E-06      0.73    <-- DIS
     369       7.69379685       7.69378048       2.127E-06      0.73    <-- DIS
     370       7.69378750       7.69377113       2.128E-06      0.74    <-- DIS
     371       7.69377814       7.69376177       2.128E-06      0.74    <-- DIS
     372       7.69376879       7.69375241       2.128E-06      0.74    <-- DIS
     373       7.69375943       7.69374305       2.129E-06      0.74    <-- DIS
     374       7.69375007       7.69373369       2.129E-06      0.74    <-- DIS
     375       7.69374071       7.69372433       2.129E-06      0.75    <-- DIS
     376       7.69373135       7.69371496       2.130E-06      0.75    <-- DIS
     377       7.69372198       7.69370560       2.130E-06      0.75    <-- DIS
     378       7.69371262       7.69369623       2.130E-06      0.75    <-- DIS
     379       7.69370325       7.69368686       2.131E-06      0.75    <-- DIS
     380       7.69369388       7.69367749       2.131E-06      0.76    <-- DIS
     381       7.69368452       7.69366812       2.131E-06      0.76    <-- DIS
     382       7.69367514       7.69365874       2.132E-06      0.76    <-- DIS
     383       7.69366577       7.69364937       2.132E-06      0.76    <-- DIS
     384       7.69365640       7.69364000       2.132E-06      0.76    <-- DIS
     385       7.69364703       7.69363062       2.132E-06      0.77    <-- DIS
     386       7.69363765       7.69362124       2.133E-06      0.77    <-- DIS
     387       7.69362827       7.69361186       2.133E-06      0.77    <-- DIS
     388       7.69361890       7.69360248       2.133E-06      0.77    <-- DIS
     389       7.69360952       7.69359310       2.134E-06      0.77    <-- DIS
     390       7.69360014       7.69358372       2.134E-06      0.78    <-- DIS
     391       7.69359076       7.69357434       2.134E-06      0.78    <-- DIS
     392       7.69358137       7.69356495       2.134E-06      0.78    <-- DIS
     393       7.69357199       7.69355557       2.135E-06      0.78    <-- DIS
     394       7.69356261       7.69354618       2.135E-06      0.78    <-- DIS
     395       7.69355322       7.69353679       2.135E-06      0.78    <-- DIS
     396       7.69354383       7.69352741       2.135E-06      0.79    <-- DIS
     397       7.69353445       7.69351802       2.135E-06      0.79    <-- DIS
     398       7.69352506       7.69350863       2.136E-06      0.79    <-- DIS
     399       7.69351567       7.69349924       2.136E-06      0.79    <-- DIS
     400       7.69350628       7.69348984       2.136E-06      0.79    <-- DIS
     401       7.69349689       7.69348045       2.136E-06      0.80    <-- DIS
     402       7.69348749       7.69347106       2.137E-06      0.80    <-- DIS
     403       7.69347810       7.69346166       2.137E-06      0.80    <-- DIS
     404       7.69346871       7.69345227       2.137E-06      0.80    <-- DIS
     405       7.69345931       7.69344287       2.137E-06      0.80    <-- DIS
     406       7.69344992       7.69343348       2.137E-06      0.81    <-- DIS
     407       7.69344052       7.69342408       2.137E-06      0.81    <-- DIS
     408       7.69343113       7.69341468       2.138E-06      0.81    <-- DIS
     409       7.69342173       7.69340528       2.138E-06      0.81    <-- DIS
     410       7.69341233       7.69339588       2.138E-06      0.81    <-- DIS
     411       7.69340293       7.69338648       2.138E-06      0.82    <-- DIS
     412       7.69339353       7.69337708       2.138E-06      0.82    <-- DIS
     413       7.69338413       7.69336768       2.138E-06      0.82    <-- DIS
     414       7.69337473       7.69335828       2.138E-06      0.82    <-- DIS
     415       7.69336533       7.69334888       2.138E-06      0.82    <-- DIS
     416       7.69335593       7.69333948       2.139E-06      0.83    <-- DIS
     417       7.69334653       7.69333008       2.139E-06      0.83    <-- DIS
     418       7.69333713       7.69332067       2.139E-06      0.83    <-- DIS
     419       7.69332773       7.69331127       2.139E-06      0.83    <-- DIS
     420       7.69331832       7.69330187       2.139E-06      0.83    <-- DIS
     421       7.69330892       7.69329246       2.139E-06      0.84    <-- DIS
     422       7.69329952       7.69328306       2.139E-06      0.84    <-- DIS
     423       7.69329011       7.69327366       2.139E-06      0.84    <-- DIS
     424       7.69328071       7.69326425       2.139E-06      0.84    <-- DIS
     425       7.69327130       7.69325485       2.139E-06      0.84    <-- DIS
     426       7.69326190       7.69324544       2.139E-06      0.85    <-- DIS
     427       7.69325250       7.69323604       2.139E-06      0.85    <-- DIS
     428       7.69324309       7.69322663       2.139E-06      0.85    <-- DIS
     429       7.69323369       7.69321723       2.139E-06      0.85    <-- DIS
     430       7.69322428       7.69320782       2.139E-06      0.85    <-- DIS
     431       7.69321488       7.69319842       2.139E-06      0.86    <-- DIS
     432       7.69320547       7.69318901       2.139E-06      0.86    <-- DIS
     433       7.69319607       7.69317961       2.139E-06      0.86    <-- DIS
     434       7.69318666       7.69317020       2.139E-06      0.86    <-- DIS
     435       7.69317726       7.69316080       2.139E-06      0.86    <-- DIS
     436       7.69316785       7.69315140       2.139E-06      0.87    <-- DIS
     437       7.69315845       7.69314199       2.139E-06      0.87    <-- DIS
     438       7.69314904       7.69313259       2.139E-06      0.87    <-- DIS
     439       7.69313964       7.69312318       2.139E-06      0.87    <-- DIS
     440       7.69313024       7.69311378       2.139E-06      0.87    <-- DIS
     441       7.69312083       7.69310438       2.139E-06      0.88    <-- DIS
     442       7.69311143       7.69309498       2.139E-06      0.88    <-- DIS
     443       7.69310203       7.69308557       2.139E-06      0.88    <-- DIS
     444       7.69309263       7.69307617       2.139E-06      0.88    <-- DIS
     445       7.69308322       7.69306677       2.139E-06      0.88    <-- DIS
     446       7.69307382       7.69305737       2.139E-06      0.89    <-- DIS
     447       7.69306442       7.69304797       2.138E-06      0.89    <-- DIS
     448       7.69305502       7.69303857       2.138E-06      0.89    <-- DIS
     449       7.69304562       7.69302917       2.138E-06      0.89    <-- DIS
     450       7.69303622       7.69301977       2.138E-06      0.89    <-- DIS
     451       7.69302682       7.69301038       2.138E-06      0.90    <-- DIS
     452       7.69301743       7.69300098       2.138E-06      0.90    <-- DIS
     453       7.69300803       7.69299158       2.138E-06      0.90    <-- DIS
     454       7.69299863       7.69298219       2.137E-06      0.90    <-- DIS
     455       7.69298924       7.69297280       2.137E-06      0.90    <-- DIS
     456       7.69297984       7.69296340       2.137E-06      0.91    <-- DIS
     457       7.69297045       7.69295401       2.137E-06      0.91    <-- DIS
     458       7.69296105       7.69294462       2.137E-06      0.91    <-- DIS
     459       7.69295166       7.69293523       2.136E-06      0.91    <-- DIS
     460       7.69294227       7.69292584       2.136E-06      0.91    <-- DIS
     461       7.69293288       7.69291645       2.136E-06      0.92    <-- DIS
     462       7.69292349       7.69290706       2.136E-06      0.92    <-- DIS
     463       7.69291410       7.69289768       2.135E-06      0.92    <-- DIS
     464       7.69290472       7.69288829       2.135E-06      0.92    <-- DIS
     465       7.69289533       7.69287891       2.135E-06      0.92    <-- DIS
     466       7.69288595       7.69286953       2.135E-06      0.93    <-- DIS
     467       7.69287656       7.69286014       2.134E-06      0.93    <-- DIS
     468       7.69286718       7.69285076       2.134E-06      0.93    <-- DIS
     469       7.69285780       7.69284139       2.134E-06      0.93    <-- DIS
     470       7.69284842       7.69283201       2.133E-06      0.93    <-- DIS
     471       7.69283904       7.69282263       2.133E-06      0.93    <-- DIS
     472       7.69282967       7.69281326       2.133E-06      0.94    <-- DIS
     473       7.69282029       7.69280389       2.132E-06      0.94    <-- DIS
     474       7.69281092       7.69279451       2.132E-06      0.94    <-- DIS
     475       7.69280154       7.69278514       2.132E-06      0.94    <-- DIS
     476       7.69279217       7.69277578       2.131E-06      0.94    <-- DIS
     477       7.69278280       7.69276641       2.131E-06      0.95    <-- DIS
     478       7.69277344       7.69275705       2.131E-06      0.95    <-- DIS
     479       7.69276407       7.69274768       2.130E-06      0.95    <-- DIS
     480       7.69275471       7.69273832       2.130E-06      0.95    <-- DIS
     481       7.69274534       7.69272896       2.130E-06      0.95    <-- DIS
     482       7.69273598       7.69271960       2.129E-06      0.96    <-- DIS
     483       7.69272662       7.69271025       2.129E-06      0.96    <-- DIS
     484       7.69271727       7.69270089       2.128E-06      0.96    <-- DIS
     485       7.69270791       7.69269154       2.128E-06      0.96    <-- DIS
     486       7.69269856       7.69268219       2.127E-06      0.96    <-- DIS
     487       7.69268921       7.69267285       2.127E-06      0.97    <-- DIS
     488       7.69267986       7.69266350       2.126E-06      0.97    <-- DIS
     489       7.69267051       7.69265416       2.126E-06      0.97    <-- DIS
     490       7.69266117       7.69264482       2.126E-06      0.97    <-- DIS
     491       7.69265182       7.69263548       2.125E-06      0.97    <-- DIS
     492       7.69264248       7.69262614       2.125E-06      0.98    <-- DIS
     493       7.69263314       7.69261680       2.124E-06      0.98    <-- DIS
     494       7.69262381       7.69260747       2.123E-06      0.98    <-- DIS
     495       7.69261447       7.69259814       2.123E-06      0.98    <-- DIS
     496       7.69260514       7.69258882       2.122E-06      0.98    <-- DIS
     497       7.69259581       7.69257949       2.122E-06      0.99    <-- DIS
     498       7.69258649       7.69257017       2.121E-06      0.99    <-- DIS
     499       7.69257716       7.69256085       2.121E-06      0.99    <-- DIS
     500       7.69256784       7.69255153       2.120E-06      0.99    <-- DIS
     501       7.69255852       7.69254222       2.120E-06      0.99    <-- DIS
     502       7.69254920       7.69253290       2.119E-06      1.00    <-- DIS
     503       7.69253989       7.69252359       2.118E-06      1.00    <-- DIS
     504       7.69253058       7.69251429       2.118E-06      1.00    <-- DIS
     505       7.69252127       7.69250498       2.117E-06      1.00    <-- DIS
     506       7.69251196       7.69249568       2.117E-06      1.00    <-- DIS
     507       7.69250266       7.69248638       2.116E-06      1.01    <-- DIS
     508       7.69249336       7.69247709       2.115E-06      1.01    <-- DIS
     509       7.69248406       7.69246780       2.115E-06      1.01    <-- DIS
     510       7.69247477       7.69245851       2.114E-06      1.01    <-- DIS
     511       7.69246548       7.69244922       2.113E-06      1.01    <-- DIS
     512       7.69245619       7.69243994       2.113E-06      1.02    <-- DIS
     513       7.69244690       7.69243066       2.112E-06      1.02    <-- DIS
     514       7.69243762       7.69242138       2.111E-06      1.02    <-- DIS
     515       7.69242834       7.69241211       2.110E-06      1.02    <-- DIS
     516       7.69241906       7.69240284       2.110E-06      1.02    <-- DIS
     517       7.69240979       7.69239357       2.109E-06      1.03    <-- DIS
     518       7.69240052       7.69238430       2.108E-06      1.03    <-- DIS
     519       7.69239126       7.69237504       2.108E-06      1.03    <-- DIS
     520       7.69238199       7.69236579       2.107E-06      1.03    <-- DIS
     521       7.69237273       7.69235653       2.106E-06      1.03    <-- DIS
     522       7.69236348       7.69234728       2.105E-06      1.04    <-- DIS
     523       7.69235422       7.69233804       2.104E-06      1.04    <-- DIS
     524       7.69234497       7.69232879       2.104E-06      1.04    <-- DIS
     525       7.69233573       7.69231955       2.103E-06      1.04    <-- DIS
     526       7.69232649       7.69231032       2.102E-06      1.04    <-- DIS
     527       7.69231725       7.69230108       2.101E-06      1.05    <-- DIS
     528       7.69230801       7.69229186       2.100E-06      1.05    <-- DIS
     529       7.69229878       7.69228263       2.099E-06      1.05    <-- DIS
     530       7.69228955       7.69227341       2.099E-06      1.05    <-- DIS
     531       7.69228033       7.69226419       2.098E-06      1.05    <-- DIS
     532       7.69227111       7.69225498       2.097E-06      1.06    <-- DIS
     533       7.69226189       7.69224577       2.096E-06      1.06    <-- DIS
     534       7.69225268       7.69223656       2.095E-06      1.06    <-- DIS
     535       7.69224347       7.69222736       2.094E-06      1.06    <-- DIS
     536       7.69223427       7.69221817       2.093E-06      1.06    <-- DIS
     537       7.69222507       7.69220897       2.092E-06      1.07    <-- DIS
     538       7.69221587       7.69219978       2.091E-06      1.07    <-- DIS
     539       7.69220668       7.69219060       2.090E-06      1.07    <-- DIS
     540       7.69219749       7.69218142       2.090E-06      1.07    <-- DIS
     541       7.69218831       7.69217224       2.089E-06      1.07    <-- DIS
     542       7.69217913       7.69216307       2.088E-06      1.07    <-- DIS
     543       7.69216995       7.69215390       2.087E-06      1.08    <-- DIS
     544       7.69216078       7.69214474       2.086E-06      1.08    <-- DIS
     545       7.69215162       7.69213558       2.085E-06      1.08    <-- DIS
     546       7.69214246       7.69212643       2.084E-06      1.08    <-- DIS
     547       7.69213330       7.69211728       2.083E-06      1.08    <-- DIS
     548       7.69212415       7.69210813       2.082E-06      1.09    <-- DIS
     549       7.69211500       7.69209899       2.080E-06      1.09    <-- DIS
     550       7.69210585       7.69208986       2.079E-06      1.09    <-- DIS
     551       7.69209671       7.69208073       2.078E-06      1.09    <-- DIS
     552       7.69208758       7.69207160       2.077E-06      1.09    <-- DIS
     553       7.69207845       7.69206248       2.076E-06      1.10    <-- DIS
     554       7.69206933       7.69205336       2.075E-06      1.10    <-- DIS
     555       7.69206021       7.69204425       2.074E-06      1.10    <-- DIS
     556       7.69205109       7.69203515       2.073E-06      1.10    <-- DIS
     557       7.69204198       7.69202604       2.072E-06      1.10    <-- DIS
     558       7.69203287       7.69201695       2.071E-06      1.11    <-- DIS
     559       7.69202377       7.69200786       2.070E-06      1.11    <-- DIS
     560       7.69201468       7.69199877       2.068E-06      1.11    <-- DIS
     561       7.69200559       7.69198969       2.067E-06      1.11    <-- DIS
     562       7.69199650       7.69198061       2.066E-06      1.11    <-- DIS
     563       7.69198742       7.69197154       2.065E-06      1.12    <-- DIS
     564       7.69197835       7.69196247       2.064E-06      1.12    <-- DIS
     565       7.69196928       7.69195341       2.062E-06      1.12    <-- DIS
     566       7.69196021       7.69194436       2.061E-06      1.12    <-- DIS
     567       7.69195116       7.69193531       2.060E-06      1.12    <-- DIS
     568       7.69194210       7.69192627       2.059E-06      1.13    <-- DIS
     569       7.69193305       7.69191723       2.058E-06      1.13    <-- DIS
     570       7.69192401       7.69190819       2.056E-06      1.13    <-- DIS
     571       7.69191497       7.69189917       2.055E-06      1.13    <-- DIS
     572       7.69190594       7.69189014       2.054E-06      1.13    <-- DIS
     573       7.69189692       7.69188113       2.053E-06      1.14    <-- DIS
     574       7.69188790       7.69187212       2.051E-06      1.14    <-- DIS
     575       7.69187888       7.69186311       2.050E-06      1.14    <-- DIS
     576       7.69186987       7.69185411       2.049E-06      1.14    <-- DIS
     577       7.69186087       7.69184512       2.047E-06      1.14    <-- DIS
     578       7.69185187       7.69183613       2.046E-06      1.15    <-- DIS
     579       7.69184288       7.69182715       2.045E-06      1.15    <-- DIS
     580       7.69183389       7.69181818       2.043E-06      1.15    <-- DIS
     581       7.69182491       7.69180921       2.042E-06      1.15    <-- DIS
     582       7.69181594       7.69180024       2.041E-06      1.15    <-- DIS
     583       7.69180697       7.69179129       2.039E-06      1.16    <-- DIS
     584       7.69179801       7.69178233       2.038E-06      1.16    <-- DIS
     585       7.69178905       7.69177339       2.036E-06      1.16    <-- DIS
     586       7.69178010       7.69176445       2.035E-06      1.16    <-- DIS
     587       7.69177116       7.69175552       2.034E-06      1.16    <-- DIS
     588       7.69176222       7.69174659       2.032E-06      1.17    <-- DIS
     589       7.69175329       7.69173767       2.031E-06      1.17    <-- DIS
     590       7.69174437       7.69172876       2.029E-06      1.17    <-- DIS
     591       7.69173545       7.69171985       2.028E-06      1.17    <-- DIS
     592       7.69172654       7.69171095       2.026E-06      1.17    <-- DIS
     593       7.69171763       7.69170205       2.025E-06      1.18    <-- DIS
     594       7.69170873       7.69169317       2.024E-06      1.18    <-- DIS
     595       7.69169984       7.69168429       2.022E-06      1.18    <-- DIS
     596       7.69169095       7.69167541       2.021E-06      1.18    <-- DIS
     597       7.69168207       7.69166654       2.019E-06      1.18    <-- DIS
     598       7.69167320       7.69165768       2.018E-06      1.19    <-- DIS
     599       7.69166433       7.69164883       2.016E-06      1.19    <-- DIS
     600       7.69165548       7.69163998       2.014E-06      1.19    <-- DIS
     601       7.69164662       7.69163114       2.013E-06      1.19    <-- DIS
     602       7.69163778       7.69162231       2.011E-06      1.19    <-- DIS
     603       7.69162894       7.69161348       2.010E-06      1.19    <-- DIS
     604       7.69162011       7.69160466       2.008E-06      1.20    <-- DIS
     605       7.69161128       7.69159585       2.007E-06      1.20    <-- DIS
     606       7.69160246       7.69158704       2.005E-06      1.20    <-- DIS
     607       7.69159365       7.69157824       2.003E-06      1.20    <-- DIS
     608       7.69158485       7.69156945       2.002E-06      1.21    <-- DIS
     609       7.69157605       7.69156066       2.000E-06      1.21    <-- DIS
     610       7.69156726       7.69155189       1.999E-06      1.21    <-- DIS
     611       7.69155848       7.69154312       1.997E-06      1.21    <-- DIS
     612       7.69154970       7.69153435       1.995E-06      1.21    <-- DIS
     613       7.69154093       7.69152560       1.994E-06      1.21    <-- DIS
     614       7.69153217       7.69151685       1.992E-06      1.22    <-- DIS
     615       7.69152342       7.69150811       1.990E-06      1.22    <-- DIS
     616       7.69151467       7.69149938       1.989E-06      1.22    <-- DIS
     617       7.69150593       7.69149065       1.987E-06      1.22    <-- DIS
     618       7.69149720       7.69148193       1.985E-06      1.22    <-- DIS
     619       7.69148848       7.69147322       1.984E-06      1.23    <-- DIS
     620       7.69147976       7.69146452       1.982E-06      1.23    <-- DIS
     621       7.69147105       7.69145582       1.980E-06      1.23    <-- DIS
     622       7.69146235       7.69144713       1.978E-06      1.23    <-- DIS
     623       7.69145366       7.69143845       1.977E-06      1.23    <-- DIS
     624       7.69144497       7.69142978       1.975E-06      1.24    <-- DIS
     625       7.69143629       7.69142112       1.973E-06      1.24    <-- DIS
     626       7.69142762       7.69141246       1.971E-06      1.24    <-- DIS
     627       7.69141896       7.69140381       1.970E-06      1.24    <-- DIS
     628       7.69141031       7.69139517       1.968E-06      1.24    <-- DIS
     629       7.69140166       7.69138654       1.966E-06      1.25    <-- DIS
     630       7.69139302       7.69137791       1.964E-06      1.25    <-- DIS
     631       7.69138439       7.69136930       1.962E-06      1.25    <-- DIS
     632       7.69137577       7.69136069       1.960E-06      1.25    <-- DIS
     633       7.69136715       7.69135209       1.959E-06      1.25    <-- DIS
     634       7.69135855       7.69134350       1.957E-06      1.26    <-- DIS
     635       7.69134995       7.69133491       1.955E-06      1.26    <-- DIS
     636       7.69134136       7.69132633       1.953E-06      1.26    <-- DIS
     637       7.69133277       7.69131777       1.951E-06      1.26    <-- DIS
     638       7.69132420       7.69130921       1.949E-06      1.26    <-- DIS
     639       7.69131564       7.69130066       1.947E-06      1.27    <-- DIS
     640       7.69130708       7.69129211       1.946E-06      1.27    <-- DIS
     641       7.69129853       7.69128358       1.944E-06      1.27    <-- DIS
     642       7.69128999       7.69127505       1.942E-06      1.27    <-- DIS
     643       7.69128146       7.69126654       1.940E-06      1.27    <-- DIS
     644       7.69127293       7.69125803       1.938E-06      1.28    <-- DIS
     645       7.69126442       7.69124953       1.936E-06      1.28    <-- DIS
     646       7.69125591       7.69124104       1.934E-06      1.28    <-- DIS
     647       7.69124741       7.69123255       1.932E-06      1.28    <-- DIS
     648       7.69123892       7.69122408       1.930E-06      1.28    <-- DIS
     649       7.69123044       7.69121561       1.928E-06      1.29    <-- DIS
     650       7.69122197       7.69120716       1.926E-06      1.29    <-- DIS
     651       7.69121351       7.69119871       1.924E-06      1.29    <-- DIS
     652       7.69120505       7.69119027       1.922E-06      1.29    <-- DIS
     653       7.69119661       7.69118184       1.920E-06      1.29    <-- DIS
     654       7.69118817       7.69117342       1.918E-06      1.30    <-- DIS
     655       7.69117974       7.69116501       1.916E-06      1.30    <-- DIS
     656       7.69117132       7.69115660       1.914E-06      1.30    <-- DIS
     657       7.69116291       7.69114821       1.912E-06      1.30    <-- DIS
     658       7.69115451       7.69113982       1.910E-06      1.30    <-- DIS
     659       7.69114612       7.69113145       1.908E-06      1.31    <-- DIS
     660       7.69113774       7.69112308       1.906E-06      1.31    <-- DIS
     661       7.69112936       7.69111472       1.904E-06      1.31    <-- DIS
     662       7.69112100       7.69110637       1.902E-06      1.31    <-- DIS
     663       7.69111264       7.69109803       1.900E-06      1.31    <-- DIS
     664       7.69110430       7.69108970       1.897E-06      1.32    <-- DIS
     665       7.69109596       7.69108138       1.895E-06      1.32    <-- DIS
     666       7.69108763       7.69107307       1.893E-06      1.32    <-- DIS
     667       7.69107931       7.69106477       1.891E-06      1.32    <-- DIS
     668       7.69107101       7.69105648       1.889E-06      1.32    <-- DIS
     669       7.69106271       7.69104819       1.887E-06      1.32    <-- DIS
     670       7.69105442       7.69103992       1.885E-06      1.33    <-- DIS
     671       7.69104613       7.69103166       1.882E-06      1.33    <-- DIS
     672       7.69103786       7.69102340       1.880E-06      1.33    <-- DIS
     673       7.69102960       7.69101516       1.878E-06      1.33    <-- DIS
     674       7.69102135       7.69100692       1.876E-06      1.33    <-- DIS
     675       7.69101311       7.69099870       1.874E-06      1.34    <-- DIS
     676       7.69100487       7.69099048       1.872E-06      1.34    <-- DIS
     677       7.69099665       7.69098227       1.869E-06      1.34    <-- DIS
     678       7.69098844       7.69097408       1.867E-06      1.34    <-- DIS
     679       7.69098023       7.69096589       1.865E-06      1.34    <-- DIS
     680       7.69097204       7.69095771       1.863E-06      1.35    <-- DIS
     681       7.69096385       7.69094955       1.861E-06      1.35    <-- DIS
     682       7.69095568       7.69094139       1.858E-06      1.35    <-- DIS
     683       7.69094752       7.69093324       1.856E-06      1.35    <-- DIS
     684       7.69093936       7.69092510       1.854E-06      1.35    <-- DIS
     685       7.69093122       7.69091698       1.851E-06      1.36    <-- DIS
     686       7.69092308       7.69090886       1.849E-06      1.36    <-- DIS
     687       7.69091496       7.69090075       1.847E-06      1.36    <-- DIS
     688       7.69090684       7.69089265       1.845E-06      1.36    <-- DIS
     689       7.69089874       7.69088457       1.842E-06      1.36    <-- DIS
     690       7.69089064       7.69087649       1.840E-06      1.37    <-- DIS
     691       7.69088256       7.69086842       1.838E-06      1.37    <-- DIS
     692       7.69087448       7.69086037       1.835E-06      1.37    <-- DIS
     693       7.69086642       7.69085232       1.833E-06      1.37    <-- DIS
     694       7.69085837       7.69084429       1.831E-06      1.37    <-- DIS
     695       7.69085032       7.69083626       1.828E-06      1.38    <-- DIS
     696       7.69084229       7.69082824       1.826E-06      1.38    <-- DIS
     697       7.69083427       7.69082024       1.824E-06      1.38    <-- DIS
     698       7.69082625       7.69081224       1.821E-06      1.38    <-- DIS
     699       7.69081825       7.69080426       1.819E-06      1.38    <-- DIS
     700       7.69081026       7.69079629       1.817E-06      1.39    <-- DIS
     701       7.69080228       7.69078832       1.814E-06      1.39    <-- DIS
     702       7.69079431       7.69078037       1.812E-06      1.39    <-- DIS
     703       7.69078635       7.69077243       1.809E-06      1.39    <-- DIS
     704       7.69077840       7.69076450       1.807E-06      1.39    <-- DIS
     705       7.69077046       7.69075658       1.805E-06      1.40    <-- DIS
     706       7.69076253       7.69074867       1.802E-06      1.40    <-- DIS
     707       7.69075461       7.69074077       1.800E-06      1.40    <-- DIS
     708       7.69074670       7.69073288       1.797E-06      1.40    <-- DIS
     709       7.69073880       7.69072500       1.795E-06      1.40    <-- DIS
     710       7.69073092       7.69071713       1.793E-06      1.41    <-- DIS
     711       7.69072304       7.69070928       1.790E-06      1.41    <-- DIS
     712       7.69071518       7.69070143       1.788E-06      1.41    <-- DIS
     713       7.69070733       7.69069360       1.785E-06      1.41    <-- DIS
     714       7.69069948       7.69068577       1.783E-06      1.41    <-- DIS
     715       7.69069165       7.69067796       1.780E-06      1.42    <-- DIS
     716       7.69068383       7.69067016       1.778E-06      1.42    <-- DIS
     717       7.69067602       7.69066237       1.775E-06      1.42    <-- DIS
     718       7.69066822       7.69065458       1.773E-06      1.42    <-- DIS
     719       7.69066043       7.69064682       1.770E-06      1.42    <-- DIS
     720       7.69065265       7.69063906       1.768E-06      1.43    <-- DIS
     721       7.69064489       7.69063131       1.765E-06      1.43    <-- DIS
     722       7.69063713       7.69062357       1.763E-06      1.43    <-- DIS
     723       7.69062939       7.69061585       1.760E-06      1.43    <-- DIS
     724       7.69062165       7.69060814       1.758E-06      1.43    <-- DIS
     725       7.69061393       7.69060043       1.755E-06      1.44    <-- DIS
     726       7.69060622       7.69059274       1.753E-06      1.44    <-- DIS
     727       7.69059852       7.69058506       1.750E-06      1.44    <-- DIS
     728       7.69059083       7.69057739       1.748E-06      1.44    <-- DIS
     729       7.69058316       7.69056974       1.745E-06      1.44    <-- DIS
     730       7.69057549       7.69056209       1.742E-06      1.45    <-- DIS
     731       7.69056783       7.69055445       1.740E-06      1.45    <-- DIS
     732       7.69056019       7.69054683       1.737E-06      1.45    <-- DIS
     733       7.69055256       7.69053922       1.735E-06      1.45    <-- DIS
     734       7.69054494       7.69053162       1.732E-06      1.45    <-- DIS
     735       7.69053733       7.69052403       1.729E-06      1.46    <-- DIS
     736       7.69052973       7.69051645       1.727E-06      1.46    <-- DIS
     737       7.69052214       7.69050888       1.724E-06      1.46    <-- DIS
     738       7.69051457       7.69050133       1.722E-06      1.46    <-- DIS
     739       7.69050701       7.69049379       1.719E-06      1.46    <-- DIS
     740       7.69049945       7.69048625       1.716E-06      1.46    <-- DIS
     741       7.69049191       7.69047873       1.714E-06      1.47    <-- DIS
     742       7.69048438       7.69047122       1.711E-06      1.47    <-- DIS
     743       7.69047687       7.69046373       1.709E-06      1.47    <-- DIS
     744       7.69046936       7.69045624       1.706E-06      1.47    <-- DIS
     745       7.69046187       7.69044877       1.703E-06      1.47    <-- DIS
     746       7.69045438       7.69044131       1.701E-06      1.48    <-- DIS
     747       7.69044691       7.69043386       1.698E-06      1.48    <-- DIS
     748       7.69043945       7.69042642       1.695E-06      1.48    <-- DIS
     749       7.69043201       7.69041899       1.693E-06      1.48    <-- DIS
     750       7.69042457       7.69041158       1.690E-06      1.48    <-- DIS
     751       7.69041715       7.69040417       1.687E-06      1.49    <-- DIS
     752       7.69040974       7.69039678       1.685E-06      1.49    <-- DIS
     753       7.69040233       7.69038940       1.682E-06      1.49    <-- DIS
     754       7.69039495       7.69038203       1.679E-06      1.49    <-- DIS
     755       7.69038757       7.69037468       1.676E-06      1.49    <-- DIS
     756       7.69038021       7.69036733       1.674E-06      1.50    <-- DIS
     757       7.69037285       7.69036000       1.671E-06      1.50    <-- DIS
     758       7.69036551       7.69035268       1.668E-06      1.50    <-- DIS
     759       7.69035818       7.69034537       1.666E-06      1.50    <-- DIS
[...]
  WF centre and spread    2  (  0.021509,  1.332993, -0.000362 )     1.70440386
  WF centre and spread    3  (  0.022487,  1.332452,  3.229416 )     2.52595810
  WF centre and spread    4  (  1.142714,  0.686301,  3.209020 )     2.52686016
  Sum of centres and spreads (  1.186558,  3.350571,  6.437995 )     7.73593474
 
    177    -0.361E-12     0.0000038339        7.7359347450       6.43  <-- CONV
        O_D=      0.0280212 O_OD=      0.0201401 O_TOT=      7.7359347 <-- SPRD
 Delta: O_D=  0.3467678E-11 O_OD= -0.3827286E-11 O_TOT= -0.3606004E-12 <-- DLTA
 ------------------------------------------------------------------------------
 Cycle:    178
  WF centre and spread    1  ( -0.000151, -0.001175, -0.000080 )     0.97871262
  WF centre and spread    2  (  0.021509,  1.332993, -0.000362 )     1.70440386
  WF centre and spread    3  (  0.022487,  1.332452,  3.229416 )     2.52595810
  WF centre and spread    4  (  1.142714,  0.686301,  3.209020 )     2.52686016
  Sum of centres and spreads (  1.186558,  3.350571,  6.437995 )     7.73593474
 
    178    -0.479E-12     0.0000038330        7.7359347450       6.43  <-- CONV
        O_D=      0.0280212 O_OD=      0.0201401 O_TOT=      7.7359347 <-- SPRD
 Delta: O_D=  0.4621973E-11 O_OD= -0.5101124E-11 O_TOT= -0.4787282E-12 <-- DLTA
 ------------------------------------------------------------------------------
 Cycle:    179
  WF centre and spread    1  ( -0.000151, -0.001175, -0.000080 )     0.97871262
  WF centre and spread    2  (  0.021509,  1.332993, -0.000362 )     1.70440386
  WF centre and spread    3  (  0.022487,  1.332452,  3.229416 )     2.52595810
  WF centre and spread    4  (  1.142714,  0.686301,  3.209020 )     2.52686016
  Sum of centres and spreads (  1.186558,  3.350571,  6.437995 )     7.73593474
 
    179    -0.598E-12     0.0000038318        7.7359347450       6.43  <-- CONV
        O_D=      0.0280212 O_OD=      0.0201401 O_TOT=      7.7359347 <-- SPRD
 Delta: O_D=  0.5774728E-11 O_OD= -0.6373152E-11 O_TOT= -0.5977441E-12 <-- DLTA
 ------------------------------------------------------------------------------
 Cycle:    180
  WF centre and spread    1  ( -0.000151, -0.001175, -0.000080 )     0.97871262
  WF centre and spread    2  (  0.021509,  1.332993, -0.000362 )     1.70440386
  WF centre and spread    3  (  0.022487,  1.332452,  3.229416 )     2.52595810
  WF centre and spread    4  (  1.142714,  0.686301,  3.209020 )     2.52686016
  Sum of centres and spreads (  1.186558,  3.350571,  6.437995 )     7.73593474
 
    180    -0.719E-12     0.0000038304        7.7359347450       6.43  <-- CONV
        O_D=      0.0280212 O_OD=      0.0201401 O_TOT=      7.7359347 <-- SPRD
 Delta: O_D=  0.6925648E-11 O_OD= -0.7643084E-11 O_TOT= -0.7185363E-12 <-- DLTA
 ------------------------------------------------------------------------------
 Cycle:    181
  WF centre and spread    1  ( -0.000151, -0.001175, -0.000080 )     0.97871262
  WF centre and spread    2  (  0.021509,  1.332993, -0.000362 )     1.70440386
  WF centre and spread    3  (  0.022487,  1.332452,  3.229416 )     2.52595810
  WF centre and spread    4  (  1.142714,  0.686301,  3.209020 )     2.52686016
  Sum of centres and spreads (  1.186558,  3.350571,  6.437995 )     7.73593474
 
    181    -0.120E-12     0.0000038286        7.7359347450       6.43  <-- CONV
        O_D=      0.0280212 O_OD=      0.0201401 O_TOT=      7.7359347 <-- SPRD
 Delta: O_D=  0.1154854E-11 O_OD= -0.1274453E-11 O_TOT= -0.1199041E-12 <-- DLTA
 ------------------------------------------------------------------------------
 Cycle:    182
  WF centre and spread    1  ( -0.000151, -0.001175, -0.000080 )     0.97871262
  WF centre and spread    2  (  0.021509,  1.332993, -0.000362 )     1.70440386
  WF centre and spread    3  (  0.022487,  1.332452,  3.229416 )     2.52595810
  WF centre and spread    4  (  1.142714,  0.686301,  3.209020 )     2.52686016
  Sum of centres and spreads (  1.186558,  3.350571,  6.437995 )     7.73593474
 
    182    -0.238E-12     0.0000038284        7.7359347450       6.43  <-- CONV
        O_D=      0.0280212 O_OD=      0.0201401 O_TOT=      7.7359347 <-- SPRD
 Delta: O_D=  0.2309552E-11 O_OD= -0.2548597E-11 O_TOT= -0.2380318E-12 <-- DLTA
 ------------------------------------------------------------------------------
 Cycle:    183
  WF centre and spread    1  ( -0.000151, -0.001175, -0.000080 )     0.97871262
  WF centre and spread    2  (  0.021509,  1.332993, -0.000362 )     1.70440386
  WF centre and spread    3  (  0.022487,  1.332452,  3.229416 )     2.52595810
  WF centre and spread    4  (  1.142714,  0.686301,  3.209020 )     2.52686016
  Sum of centres and spreads (  1.186558,  3.350571,  6.437995 )     7.73593474
 
    183    -0.359E-12     0.0000038278        7.7359347450       6.43  <-- CONV
        O_D=      0.0280212 O_OD=      0.0201401 O_TOT=      7.7359347 <-- SPRD
 Delta: O_D=  0.3463535E-11 O_OD= -0.3822033E-11 O_TOT= -0.3588241E-12 <-- DLTA
 ------------------------------------------------------------------------------
 Cycle:    184
  WF centre and spread    1  ( -0.000151, -0.001175, -0.000080 )     0.97871262
  WF centre and spread    2  (  0.021509,  1.332993, -0.000362 )     1.70440386
  WF centre and spread    3  (  0.022487,  1.332452,  3.229416 )     2.52595810
  WF centre and spread    4  (  1.142714,  0.686301,  3.209020 )     2.52686017
  Sum of centres and spreads (  1.186558,  3.350571,  6.437995 )     7.73593474
 
    184    -0.478E-12     0.0000038270        7.7359347450       6.43  <-- CONV
        O_D=      0.0280212 O_OD=      0.0201401 O_TOT=      7.7359347 <-- SPRD
 Delta: O_D=  0.4616557E-11 O_OD= -0.5094258E-11 O_TOT= -0.4778400E-12 <-- DLTA
 ------------------------------------------------------------------------------
 Cycle:    185
  WF centre and spread    1  ( -0.000151, -0.001175, -0.000080 )     0.97871262
  WF centre and spread    2  (  0.021509,  1.332993, -0.000362 )     1.70440386
  WF centre and spread    3  (  0.022487,  1.332452,  3.229416 )     2.52595810
  WF centre and spread    4  (  1.142714,  0.686301,  3.209020 )     2.52686017
  Sum of centres and spreads (  1.186558,  3.350571,  6.437995 )     7.73593474
 
    185    -0.597E-12     0.0000038259        7.7359347450       6.44  <-- CONV
        O_D=      0.0280212 O_OD=      0.0201401 O_TOT=      7.7359347 <-- SPRD
 Delta: O_D=  0.5768146E-11 O_OD= -0.6364787E-11 O_TOT= -0.5968559E-12 <-- DLTA
 ------------------------------------------------------------------------------
 Cycle:    186
  WF centre and spread    1  ( -0.000151, -0.001175, -0.000080 )     0.97871262
  WF centre and spread    2  (  0.021509,  1.332993, -0.000362 )     1.70440386
  WF centre and spread    3  (  0.022487,  1.332452,  3.229416 )     2.52595810
  WF centre and spread    4  (  1.142714,  0.686301,  3.209020 )     2.52686017
  Sum of centres and spreads (  1.186558,  3.350571,  6.437995 )     7.73593474
 
    186    -0.715E-12     0.0000038246        7.7359347450       6.44  <-- CONV
        O_D=      0.0280212 O_OD=      0.0201401 O_TOT=      7.7359347 <-- SPRD
 Delta: O_D=  0.6918001E-11 O_OD= -0.7633255E-11 O_TOT= -0.7149836E-12 <-- DLTA
 ------------------------------------------------------------------------------
 Cycle:    187
  WF centre and spread    1  ( -0.000151, -0.001175, -0.000080 )     0.97871262
  WF centre and spread    2  (  0.021509,  1.332993, -0.000362 )     1.70440386
  WF centre and spread    3  (  0.022487,  1.332452,  3.229416 )     2.52595810
  WF centre and spread    4  (  1.142714,  0.686301,  3.209020 )     2.52686017
  Sum of centres and spreads (  1.186558,  3.350571,  6.437995 )     7.73593474
 
    187    -0.119E-12     0.0000038230        7.7359347450       6.44  <-- CONV
        O_D=      0.0280212 O_OD=      0.0201401 O_TOT=      7.7359347 <-- SPRD
 Delta: O_D=  0.1153490E-11 O_OD= -0.1272725E-11 O_TOT= -0.1190159E-12 <-- DLTA
 ------------------------------------------------------------------------------
 Cycle:    188
  WF centre and spread    1  ( -0.000151, -0.001175, -0.000080 )     0.97871262
  WF centre and spread    2  (  0.021509,  1.332993, -0.000362 )     1.70440386
  WF centre and spread    3  (  0.022487,  1.332452,  3.229416 )     2.52595810
  WF centre and spread    4  (  1.142714,  0.686301,  3.209020 )     2.52686017
  Sum of centres and spreads (  1.186558,  3.350571,  6.437995 )     7.73593474
 
    188    -0.239E-12     0.0000038227        7.7359347450       6.44  <-- CONV
        O_D=      0.0280212 O_OD=      0.0201401 O_TOT=      7.7359347 <-- SPRD
 Delta: O_D=  0.2306790E-11 O_OD= -0.2545169E-11 O_TOT= -0.2389200E-12 <-- DLTA
 ------------------------------------------------------------------------------
 Cycle:    189
  WF centre and spread    1  ( -0.000151, -0.001175, -0.000080 )     0.97871262
  WF centre and spread    2  (  0.021509,  1.332993, -0.000362 )     1.70440386
  WF centre and spread    3  (  0.022487,  1.332452,  3.229416 )     2.52595810
  WF centre and spread    4  (  1.142714,  0.686301,  3.209020 )     2.52686017
  Sum of centres and spreads (  1.186558,  3.350571,  6.437995 )     7.73593474
 
    189    -0.357E-12     0.0000038222        7.7359347450       6.44  <-- CONV
        O_D=      0.0280212 O_OD=      0.0201401 O_TOT=      7.7359347 <-- SPRD
 Delta: O_D=  0.3459458E-11 O_OD= -0.3816867E-11 O_TOT= -0.3570477E-12 <-- DLTA
 ------------------------------------------------------------------------------
 Cycle:    190
  WF centre and spread    1  ( -0.000151, -0.001175, -0.000080 )     0.97871263
  WF centre and spread    2  (  0.021509,  1.332993, -0.000362 )     1.70440386
  WF centre and spread    3  (  0.022487,  1.332452,  3.229416 )     2.52595809
  WF centre and spread    4  (  1.142714,  0.686301,  3.209020 )     2.52686017
  Sum of centres and spreads (  1.186558,  3.350571,  6.437995 )     7.73593474
 
    190    -0.476E-12     0.0000038214        7.7359347450       6.44  <-- CONV
        O_D=      0.0280212 O_OD=      0.0201401 O_TOT=      7.7359347 <-- SPRD
 Delta: O_D=  0.4611190E-11 O_OD= -0.5087521E-11 O_TOT= -0.4760636E-12 <-- DLTA
 ------------------------------------------------------------------------------
 Cycle:    191
  WF centre and spread    1  ( -0.000151, -0.001175, -0.000080 )     0.97871263
  WF centre and spread    2  (  0.021509,  1.332993, -0.000362 )     1.70440385
  WF centre and spread    3  (  0.022487,  1.332452,  3.229416 )     2.52595809
  WF centre and spread    4  (  1.142714,  0.686301,  3.209020 )     2.52686017
  Sum of centres and spreads (  1.186558,  3.350571,  6.437995 )     7.73593474
 
    191    -0.595E-12     0.0000038204        7.7359347450       6.44  <-- CONV
        O_D=      0.0280212 O_OD=      0.0201401 O_TOT=      7.7359347 <-- SPRD
 Delta: O_D=  0.5761582E-11 O_OD= -0.6356561E-11 O_TOT= -0.5950795E-12 <-- DLTA
 ------------------------------------------------------------------------------
 Cycle:    192
  WF centre and spread    1  ( -0.000151, -0.001175, -0.000080 )     0.97871263
  WF centre and spread    2  (  0.021509,  1.332993, -0.000362 )     1.70440385
  WF centre and spread    3  (  0.022487,  1.332452,  3.229416 )     2.52595809
  WF centre and spread    4  (  1.142714,  0.686301,  3.209020 )     2.52686017
  Sum of centres and spreads (  1.186558,  3.350571,  6.437995 )     7.73593474
 
    192    -0.714E-12     0.0000038192        7.7359347450       6.44  <-- CONV
        O_D=      0.0280212 O_OD=      0.0201401 O_TOT=      7.7359347 <-- SPRD
 Delta: O_D=  0.6910333E-11 O_OD= -0.7623627E-11 O_TOT= -0.7140954E-12 <-- DLTA
 ------------------------------------------------------------------------------
 Cycle:    193
  WF centre and spread    1  ( -0.000151, -0.001175, -0.000080 )     0.97871263
  WF centre and spread    2  (  0.021509,  1.332993, -0.000362 )     1.70440385
  WF centre and spread    3  (  0.022487,  1.332452,  3.229416 )     2.52595809
  WF centre and spread    4  (  1.142714,  0.686301,  3.209020 )     2.52686017
  Sum of centres and spreads (  1.186558,  3.350571,  6.437995 )     7.73593474
 
    193    -0.118E-12     0.0000038177        7.7359347450       6.45  <-- CONV
        O_D=      0.0280212 O_OD=      0.0201401 O_TOT=      7.7359347 <-- SPRD
 Delta: O_D=  0.1152120E-11 O_OD= -0.1270973E-11 O_TOT= -0.1181277E-12 <-- DLTA
 ------------------------------------------------------------------------------
 Cycle:    194
  WF centre and spread    1  ( -0.000151, -0.001175, -0.000080 )     0.97871263
  WF centre and spread    2  (  0.021509,  1.332993, -0.000362 )     1.70440385
  WF centre and spread    3  (  0.022487,  1.332452,  3.229416 )     2.52595809
  WF centre and spread    4  (  1.142714,  0.686301,  3.209020 )     2.52686017
  Sum of centres and spreads (  1.186558,  3.350571,  6.437995 )     7.73593474
 
    194    -0.237E-12     0.0000038174        7.7359347450       6.45  <-- CONV
        O_D=      0.0280212 O_OD=      0.0201401 O_TOT=      7.7359347 <-- SPRD
 Delta: O_D=  0.2304074E-11 O_OD= -0.2541797E-11 O_TOT= -0.2371436E-12 <-- DLTA
 ------------------------------------------------------------------------------
 Cycle:    195
  WF centre and spread    1  ( -0.000151, -0.001175, -0.000080 )     0.97871263
  WF centre and spread    2  (  0.021509,  1.332993, -0.000362 )     1.70440385
  WF centre and spread    3  (  0.022487,  1.332452,  3.229416 )     2.52595809
  WF centre and spread    4  (  1.142714,  0.686301,  3.209020 )     2.52686017
  Sum of centres and spreads (  1.186558,  3.350571,  6.437995 )     7.73593474
 
    195    -0.357E-12     0.0000038169        7.7359347450       6.45  <-- CONV
        O_D=      0.0280212 O_OD=      0.0201401 O_TOT=      7.7359347 <-- SPRD
 Delta: O_D=  0.3455417E-11 O_OD= -0.3811899E-11 O_TOT= -0.3570477E-12 <-- DLTA
 ------------------------------------------------------------------------------
 Cycle:    196
  WF centre and spread    1  ( -0.000151, -0.001175, -0.000080 )     0.97871263
  WF centre and spread    2  (  0.021509,  1.332993, -0.000362 )     1.70440385
  WF centre and spread    3  (  0.022487,  1.332452,  3.229416 )     2.52595809
  WF centre and spread    4  (  1.142714,  0.686301,  3.209020 )     2.52686017
  Sum of centres and spreads (  1.186558,  3.350571,  6.437995 )     7.73593474
 
    196    -0.475E-12     0.0000038162        7.7359347450       6.45  <-- CONV
        O_D=      0.0280212 O_OD=      0.0201401 O_TOT=      7.7359347 <-- SPRD
 Delta: O_D=  0.4605875E-11 O_OD= -0.5080870E-11 O_TOT= -0.4751755E-12 <-- DLTA
 ------------------------------------------------------------------------------
 Cycle:    197
  WF centre and spread    1  ( -0.000151, -0.001175, -0.000080 )     0.97871263
  WF centre and spread    2  (  0.021509,  1.332993, -0.000362 )     1.70440385
  WF centre and spread    3  (  0.022487,  1.332452,  3.229416 )     2.52595809
  WF centre and spread    4  (  1.142714,  0.686301,  3.209020 )     2.52686017
  Sum of centres and spreads (  1.186558,  3.350571,  6.437995 )     7.73593474
 
    197    -0.593E-12     0.0000038153        7.7359347450       6.45  <-- CONV
        O_D=      0.0280212 O_OD=      0.0201401 O_TOT=      7.7359347 <-- SPRD
 Delta: O_D=  0.5755080E-11 O_OD= -0.6348429E-11 O_TOT= -0.5933032E-12 <-- DLTA
 ------------------------------------------------------------------------------
 Cycle:    198
  WF centre and spread    1  ( -0.000151, -0.001175, -0.000080 )     0.97871263
  WF centre and spread    2  (  0.021509,  1.332993, -0.000362 )     1.70440385
  WF centre and spread    3  (  0.022487,  1.332452,  3.229416 )     2.52595809
  WF centre and spread    4  (  1.142714,  0.686301,  3.209020 )     2.52686017
  Sum of centres and spreads (  1.186558,  3.350571,  6.437995 )     7.73593474
 
    198    -0.711E-12     0.0000038141        7.7359347450       6.45  <-- CONV
        O_D=      0.0280212 O_OD=      0.0201401 O_TOT=      7.7359347 <-- SPRD
 Delta: O_D=  0.6902656E-11 O_OD= -0.7614163E-11 O_TOT= -0.7114309E-12 <-- DLTA
 ------------------------------------------------------------------------------
 Cycle:    199
  WF centre and spread    1  ( -0.000151, -0.001175, -0.000080 )     0.97871263
  WF centre and spread    2  (  0.021509,  1.332993, -0.000362 )     1.70440385
  WF centre and spread    3  (  0.022487,  1.332452,  3.229416 )     2.52595809
  WF centre and spread    4  (  1.142714,  0.686301,  3.209020 )     2.52686017
  Sum of centres and spreads (  1.186558,  3.350571,  6.437995 )     7.73593474
 
    199    -0.118E-12     0.0000038127        7.7359347450       6.45  <-- CONV
        O_D=      0.0280212 O_OD=      0.0201401 O_TOT=      7.7359347 <-- SPRD
 Delta: O_D=  0.1150795E-11 O_OD= -0.1269335E-11 O_TOT= -0.1181277E-12 <-- DLTA
 ------------------------------------------------------------------------------
 Cycle:    200
  WF centre and spread    1  ( -0.000151, -0.001175, -0.000080 )     0.97871263
  WF centre and spread    2  (  0.021509,  1.332993, -0.000362 )     1.70440385
  WF centre and spread    3  (  0.022487,  1.332452,  3.229416 )     2.52595809
  WF centre and spread    4  (  1.142714,  0.686301,  3.209020 )     2.52686018
  Sum of centres and spreads (  1.186558,  3.350571,  6.437995 )     7.73593474
 
    200    -0.238E-12     0.0000038124        7.7359347450       6.46  <-- CONV
        O_D=      0.0280212 O_OD=      0.0201401 O_TOT=      7.7359347 <-- SPRD
 Delta: O_D=  0.2301378E-11 O_OD= -0.2538497E-11 O_TOT= -0.2380318E-12 <-- DLTA
 ------------------------------------------------------------------------------

 Writing checkpoint file gra.chk... done

 Final State
  WF centre and spread    1  ( -0.000151, -0.001175, -0.000080 )     0.97871263
  WF centre and spread    2  (  0.021509,  1.332993, -0.000362 )     1.70440385
  WF centre and spread    3  (  0.022487,  1.332452,  3.229416 )     2.52595809
  WF centre and spread    4  (  1.142714,  0.686301,  3.209020 )     2.52686018
  Sum of centres and spreads (  1.186558,  3.350571,  6.437995 )     7.73593474
 
         Spreads (Ang^2)       Omega I      =     7.687773475
        ================       Omega D      =     0.028021196
                               Omega OD     =     0.020140074
    Final Spread (Ang^2)       Omega Total  =     7.735934745
 ------------------------------------------------------------------------------

 Wannier centres written to file gra_centres.xyz
 Time for wannierise            0.323 (sec)

 Writing checkpoint file gra.chk... done

 *---------------------------------------------------------------------------*
 |                               PLOTTING                                    |
 *---------------------------------------------------------------------------*
 
 
 Calculating interpolated band-structure
 
 Time to calculate interpolated band structure       0.351 (sec)
 
 Time for plotting              0.543 (sec)
 Total Execution Time           8.288 (sec)

 *===========================================================================*
 |                             TIMING INFORMATION                            |
 *===========================================================================*
 |    Tag                                                Ncalls      Time (s)|
 |---------------------------------------------------------------------------|
 |kmesh: get                                        :         1         0.395|
 |overlap: allocate                                 :         1         0.000|
 |overlap: read                                     :         1         0.865|
 |dis: main                                         :         1         6.104|
 |wann: main                                        :         1         0.323|
 |plot: main                                        :         1         0.543|
 *---------------------------------------------------------------------------*
 
 All done: wannier90 exiting
