
  ___ ___ ___ _ _ _  
 |   |   |_  | | | | 
 | | | | | . | | | | 
 |__ |  _|___|_____|  21.6.0
 |___|_|             

User:   pfsuo@cu18
Date:   Tue Nov  9 16:19:02 2021
Arch:   x86_64
Pid:    39916
Python: 3.8.5
gpaw:   /home/pfsuo/data0/anaconda3/lib/python3.8/site-packages/gpaw-21.6.0-py3.8-linux-x86_64.egg/gpaw
_gpaw:  /home/pfsuo/data0/anaconda3/lib/python3.8/site-packages/
        _gpaw.cpython-38-x86_64-linux-gnu.so
ase:    /home/pfsuo/data0/anaconda3/lib/python3.8/site-packages/ase (version 3.22.0)
numpy:  /home/pfsuo/data0/anaconda3/lib/python3.8/site-packages/numpy (version 1.21.3)
scipy:  /home/pfsuo/data0/anaconda3/lib/python3.8/site-packages/scipy (version 1.7.1)
libxc:  4.3.4
units:  Angstrom and eV
cores: 16
OpenMP: True
OMP_NUM_THREADS: 1

Input parameters:
  convergence: {bands: 16}
  gpts: [14 14 35]
  kpts: [15 15  3]
  mode: {ecut: 520.0,
         gammacentered: False,
         name: pw}
  nbands: 20
  occupations: {name: fermi-dirac,
                width: 0.01}
  symmetry: off

Initialize ...

C-setup:
  name: Carbon
  id: d60576a1f549371a163e72552ca58787
  Z: 6.0
  valence: 4
  core: 2
  charge: 0.0
  file: /home/pfsuo/software/gpaw-setups-0.9.20000/C.LDA.gz
  compensation charges: gauss, rc=0.20, lmax=2
  cutoffs: 1.14(filt), 1.14(core),
  valence states:
                energy  radius
    2s(2.00)   -13.639   0.635
    2p(2.00)    -5.414   0.635
    *s          13.573   0.635
    *p          21.797   0.635
    *d           0.000   0.635

  Using partial waves for C as LCAO basis

Reference energy: -4075.210151

Spin-paired calculation

Convergence criteria:
  Maximum total energy change: 0.0005 eV / electron
  Maximum integral of absolute density change: 0.0001 electrons
  Maximum integral of absolute eigenstate change: 4e-08 eV^2
  Maximum number of iterations: 333

Symmetries present (total): 1

  ( 1  0  0)
  ( 0  1  0)
  ( 0  0  1)

675 k-points: 15 x 15 x 3 Monkhorst-Pack grid
675 k-points in the irreducible part of the Brillouin zone
       k-points in crystal coordinates                weights
   0:    -0.46666667   -0.46666667   -0.33333333          1/675
   1:    -0.46666667   -0.46666667    0.00000000          1/675
   2:    -0.46666667   -0.46666667    0.33333333          1/675
   3:    -0.46666667   -0.40000000   -0.33333333          1/675
   4:    -0.46666667   -0.40000000    0.00000000          1/675
   5:    -0.46666667   -0.40000000    0.33333333          1/675
   6:    -0.46666667   -0.33333333   -0.33333333          1/675
   7:    -0.46666667   -0.33333333    0.00000000          1/675
   8:    -0.46666667   -0.33333333    0.33333333          1/675
   9:    -0.46666667   -0.26666667   -0.33333333          1/675
          ...
 674:     0.46666667    0.46666667    0.33333333          1/675

Wave functions: Plane wave expansion
  Cutoff energy: 520.000 eV
  Number of coefficients (min, max): 915, 949
  Pulay-stress correction: 0.000000 eV/Ang^3 (de/decut=0.000000)
  Using FFTW library
  ScaLapack parameters: grid=1x1, blocksize=None
  Wavefunction extrapolation:
    Improved wavefunction reuse through dual PAW basis 

Occupation numbers: Fermi-Dirac: width=0.0100 eV
 

Eigensolver
   Davidson(niter=2) 

Densities:
  Coarse grid: 14*14*35 grid
  Fine grid: 28*28*70 grid
  Total Charge: 0.000000 

Density mixing:
  Method: separate
  Backend: pulay
  Linear mixing parameter: 0.05
  Mixing with 5 old densities
  Damping of long wave oscillations: 50 

Hamiltonian:
  XC and Coulomb potentials evaluated on a 28*28*70 grid
  Using the LDA Exchange-Correlation functional
 

Memory estimate:
  Process memory now: 173.27 MiB
  Calculator: 22.03 MiB
    Density: 2.86 MiB
      Arrays: 1.36 MiB
      Localized functions: 0.98 MiB
      Mixer: 0.52 MiB
    Hamiltonian: 0.91 MiB
      Arrays: 0.89 MiB
      XC: 0.00 MiB
      Poisson: 0.00 MiB
      vbar: 0.02 MiB
    Wavefunctions: 18.25 MiB
      Arrays psit_nG: 12.16 MiB
      Eigensolver: 0.42 MiB
      Projections: 0.67 MiB
      Projectors: 4.13 MiB
      PW-descriptor: 0.87 MiB

Total number of cores used: 16
Parallelization over k-points: 16

Number of atoms: 4
Number of atomic orbitals: 16
Number of bands in calculation: 20
Number of valence electrons: 16
Bands to converge: 16

... initialized

Initializing position-dependent things.

Creating initial wave functions:
  16 bands from LCAO basis set
  4 bands from random numbers

                    
                    
                    
                    
        C  C        
                    
                    
                    
       CC           
                    
                    
                    
                    

Positions:
   0 C      0.000000    0.000000    0.000000    ( 0.0000,  0.0000,  0.0000)
   1 C      0.000000    1.413089    0.000000    ( 0.0000,  0.0000,  0.0000)
   2 C      0.000000    1.413089    3.325396    ( 0.0000,  0.0000,  0.0000)
   3 C      1.223771    0.706544    3.325396    ( 0.0000,  0.0000,  0.0000)

Unit cell:
           periodic     x           y           z      points  spacing
  1. axis:    yes    2.447542    0.000000   -0.000000    14     0.1514
  2. axis:    yes   -1.223771    2.119633    0.000000    14     0.1514
  3. axis:    yes    0.000000    0.000000    6.650792    35     0.1900

  Lengths:   2.447542   2.447542   6.650792
  Angles:   90.000000  90.000000 120.000000

Effective grid spacing dv^(1/3) = 0.1713

                     log10-error:    total        iterations:
           time      wfs    density  energy       poisson
iter:   1  16:19:11  +1.60          -40.465344           
iter:   2  16:19:11  +0.66          -40.480346           
iter:   3  16:19:12  -0.08          -40.480644           
iter:   4  16:19:13  -0.06          -40.480658           
iter:   5  16:19:13  -0.57          -40.480659           
iter:   6  16:19:14  -1.30          -40.480659           
iter:   7  16:19:14  -2.09          -40.480659           
iter:   8  16:19:15  -2.87          -40.480659           
iter:   9  16:19:16  -3.62          -40.480659           
iter:  10  16:19:16  -4.38          -40.480659           
iter:  11  16:19:17  -5.12          -40.480659           
iter:  12  16:19:18  -5.86          -40.480659           
iter:  13  16:19:18  -6.59          -40.480659           
iter:  14  16:19:19  -7.29          -40.480659           
iter:  15  16:19:20  -7.99          -40.480659           

Converged after 15 iterations.

Dipole moment: (-0.894676, 0.516542, 0.000000) |e|*Ang

Energy contributions relative to reference atoms: (reference = -4075.210151)

Kinetic:        +40.219312
Potential:      -40.042531
External:        +0.000000
XC:             -40.704123
Entropy (-ST):   -0.000183
Local:           +0.046774
--------------------------
Free energy:    -40.480751
Extrapolated:   -40.480659

Showing only first 2 kpts
 Kpt  Band  Eigenvalues  Occupancy
  0     6      3.61567    2.00000
  0     7      3.99757    2.00000
  0     8      7.58163    0.00000
  0     9      7.94203    0.00000

  1     6      3.38230    2.00000
  1     7      4.11361    2.00000
  1     8      7.58458    0.00000
  1     9      8.27259    0.00000


Fermi level: 6.11826

No gap
Writing to nscf.gpw (mode='all')

Timing:                              incl.     excl.
-----------------------------------------------------------
Hamiltonian:                         0.017     0.000   0.0% |
 Atomic:                             0.007     0.007   0.0% |
  XC Correction:                     0.000     0.000   0.0% |
 Calculate atomic Hamiltonians:      0.003     0.003   0.0% |
 Communicate:                        0.000     0.000   0.0% |
 Initialize Hamiltonian:             0.000     0.000   0.0% |
 Poisson:                            0.000     0.000   0.0% |
 XC 3D grid:                         0.006     0.006   0.0% |
LCAO initialization:                 5.303     0.021   0.1% |
 LCAO eigensolver:                   0.402     0.001   0.0% |
  Calculate projections:             0.001     0.001   0.0% |
  DenseAtomicCorrection:             0.004     0.004   0.0% |
  Distribute overlap matrix:         0.001     0.001   0.0% |
  Orbital Layouts:                   0.006     0.006   0.0% |
  Potential matrix:                  0.316     0.316   1.1% |
  Sum over cells:                    0.073     0.073   0.2% |
 LCAO to grid:                       4.322     4.322  14.7% |-----|
 Set positions (LCAO WFS):           0.558     0.082   0.3% |
  Basic WFS set positions:           0.000     0.000   0.0% |
  Basis functions set positions:     0.000     0.000   0.0% |
  P tci:                             0.154     0.154   0.5% |
  ST tci:                            0.300     0.300   1.0% |
  mktci:                             0.022     0.022   0.1% |
PWDescriptor:                        0.011     0.011   0.0% |
SCF-cycle:                          12.303     3.381  11.5% |----|
 Davidson:                           8.883     1.980   6.7% |--|
  Apply H:                           1.231     1.153   3.9% |-|
   HMM T:                            0.078     0.078   0.3% |
  Subspace diag:                     1.654     0.042   0.1% |
   calc_h_matrix:                    1.393     0.148   0.5% |
    Apply H:                         1.244     1.152   3.9% |-|
     HMM T:                          0.092     0.092   0.3% |
   diagonalize:                      0.112     0.112   0.4% |
   rotate_psi:                       0.107     0.107   0.4% |
  calc. matrices:                    3.370     0.913   3.1% ||
   Apply H:                          2.456     2.299   7.8% |--|
    HMM T:                           0.158     0.158   0.5% |
  diagonalize:                       0.451     0.451   1.5% ||
  rotate_psi:                        0.196     0.196   0.7% |
 Orthonormalize:                     0.039     0.003   0.0% |
  calc_s_matrix:                     0.008     0.008   0.0% |
  inverse-cholesky:                  0.004     0.004   0.0% |
  projections:                       0.019     0.019   0.1% |
  rotate_psi_s:                      0.005     0.005   0.0% |
Set symmetry:                        0.000     0.000   0.0% |
Other:                              11.742    11.742  40.0% |---------------|
-----------------------------------------------------------
Total:                                        29.376 100.0%

Memory usage: 226.38 MiB
Date: Tue Nov  9 16:19:31 2021
