
  ___ ___ ___ _ _ _  
 |   |   |_  | | | | 
 | | | | | . | | | | 
 |__ |  _|___|_____|  21.6.0
 |___|_|             

User:   pfsuo@cu18
Date:   Tue Nov  9 16:18:58 2021
Arch:   x86_64
Pid:    39916
Python: 3.8.5
gpaw:   /home/pfsuo/data0/anaconda3/lib/python3.8/site-packages/gpaw-21.6.0-py3.8-linux-x86_64.egg/gpaw
_gpaw:  /home/pfsuo/data0/anaconda3/lib/python3.8/site-packages/
        _gpaw.cpython-38-x86_64-linux-gnu.so
ase:    /home/pfsuo/data0/anaconda3/lib/python3.8/site-packages/ase (version 3.22.0)
numpy:  /home/pfsuo/data0/anaconda3/lib/python3.8/site-packages/numpy (version 1.21.3)
scipy:  /home/pfsuo/data0/anaconda3/lib/python3.8/site-packages/scipy (version 1.7.1)
libxc:  4.3.4
units:  Angstrom and eV
cores: 16
OpenMP: True
OMP_NUM_THREADS: 1

Input parameters:
  convergence: {density: 1e-06}
  kpts: [15 15  3]
  mode: {ecut: 520.0,
         gammacentered: False,
         name: pw}
  occupations: {fixmagmom: False,
                name: fermi-dirac,
                width: 0.01}

System changes: positions, numbers, cell, pbc, initial_charges, initial_magmoms 

Initialize ...

C-setup:
  name: Carbon
  id: d60576a1f549371a163e72552ca58787
  Z: 6.0
  valence: 4
  core: 2
  charge: 0.0
  file: /home/pfsuo/software/gpaw-setups-0.9.20000/C.LDA.gz
  compensation charges: gauss, rc=0.20, lmax=2
  cutoffs: 1.14(filt), 1.14(core),
  valence states:
                energy  radius
    2s(2.00)   -13.639   0.635
    2p(2.00)    -5.414   0.635
    *s          13.573   0.635
    *p          21.797   0.635
    *d           0.000   0.635

  Using partial waves for C as LCAO basis

Reference energy: -4075.210151

Spin-paired calculation

Convergence criteria:
  Maximum total energy change: 0.0005 eV / electron
  Maximum integral of absolute density change: 1e-06 electrons
  Maximum integral of absolute eigenstate change: 4e-08 eV^2
  Maximum number of iterations: 333

Symmetries present (total): 12

  ( 1  1  0)  ( 1  1  0)  ( 1  0  0)  ( 1  0  0)  ( 0  1  0)  ( 0  1  0)
  ( 0 -1  0)  ( 0 -1  0)  ( 0  1  0)  ( 0  1  0)  (-1 -1  0)  (-1 -1  0)
  ( 0  0  1)  ( 0  0 -1)  ( 0  0  1)  ( 0  0 -1)  ( 0  0  1)  ( 0  0 -1)

  ( 0 -1  0)  ( 0 -1  0)  (-1  0  0)  (-1  0  0)  (-1 -1  0)  (-1 -1  0)
  (-1  0  0)  (-1  0  0)  ( 1  1  0)  ( 1  1  0)  ( 1  0  0)  ( 1  0  0)
  ( 0  0  1)  ( 0  0 -1)  ( 0  0  1)  ( 0  0 -1)  ( 0  0  1)  ( 0  0 -1)

675 k-points: 15 x 15 x 3 Monkhorst-Pack grid
54 k-points in the irreducible part of the Brillouin zone
       k-points in crystal coordinates                weights
   0:     0.00000000    0.00000000    0.00000000          1/675
   1:     0.00000000    0.00000000    0.33333333          2/675
   2:     0.06666667    0.00000000    0.00000000          6/675
   3:     0.06666667    0.00000000    0.33333333         12/675
   4:     0.13333333   -0.06666667    0.00000000          6/675
   5:     0.13333333   -0.06666667    0.33333333         12/675
   6:     0.13333333    0.00000000    0.00000000          6/675
   7:     0.13333333    0.00000000    0.33333333         12/675
   8:     0.20000000   -0.06666667    0.00000000         12/675
   9:     0.20000000   -0.06666667    0.33333333         24/675
          ...
  53:     0.46666667    0.46666667    0.33333333         12/675

Wave functions: Plane wave expansion
  Cutoff energy: 520.000 eV
  Number of coefficients (min, max): 915, 949
  Pulay-stress correction: 0.000000 eV/Ang^3 (de/decut=0.000000)
  Using FFTW library
  ScaLapack parameters: grid=1x1, blocksize=None
  Wavefunction extrapolation:
    Improved wavefunction reuse through dual PAW basis 

Occupation numbers: Fermi-Dirac: width=0.0100 eV
 

Eigensolver
   Davidson(niter=2) 

Densities:
  Coarse grid: 14*14*35 grid
  Fine grid: 28*28*70 grid
  Total Charge: 0.000000 

Density mixing:
  Method: separate
  Backend: pulay
  Linear mixing parameter: 0.05
  Mixing with 5 old densities
  Damping of long wave oscillations: 50 

Hamiltonian:
  XC and Coulomb potentials evaluated on a 28*28*70 grid
  Using the LDA Exchange-Correlation functional
 

Memory estimate:
  Process memory now: 139.74 MiB
  Calculator: 4.07 MiB
    Density: 1.44 MiB
      Arrays: 0.68 MiB
      Localized functions: 0.49 MiB
      Mixer: 0.27 MiB
    Hamiltonian: 0.46 MiB
      Arrays: 0.45 MiB
      XC: 0.00 MiB
      Poisson: 0.00 MiB
      vbar: 0.01 MiB
    Wavefunctions: 2.18 MiB
      Arrays psit_nG: 1.22 MiB
      Eigensolver: 0.31 MiB
      Projections: 0.03 MiB
      Projectors: 0.30 MiB
      PW-descriptor: 0.32 MiB

Total number of cores used: 16
Parallelization over k-points: 8
Domain decomposition: 1 x 1 x 2

Number of atoms: 4
Number of atomic orbitals: 16
Number of bands in calculation: 14
Number of valence electrons: 16
Bands to converge: occupied

... initialized

Initializing position-dependent things.

Density initialized from atomic densities
Creating initial wave functions:
  14 bands from LCAO basis set

                    
                    
                    
                    
        C  C        
                    
                    
                    
       CC           
                    
                    
                    
                    

Positions:
   0 C      0.000000    0.000000    0.000000    ( 0.0000,  0.0000,  0.0000)
   1 C      0.000000    1.413089    0.000000    ( 0.0000,  0.0000,  0.0000)
   2 C      0.000000    1.413089    3.325396    ( 0.0000,  0.0000,  0.0000)
   3 C      1.223771    0.706544    3.325396    ( 0.0000,  0.0000,  0.0000)

Unit cell:
           periodic     x           y           z      points  spacing
  1. axis:    yes    2.447542    0.000000   -0.000000    14     0.1514
  2. axis:    yes   -1.223771    2.119633    0.000000    14     0.1514
  3. axis:    yes    0.000000    0.000000    6.650792    35     0.1900

  Lengths:   2.447542   2.447542   6.650792
  Angles:   90.000000  90.000000 120.000000

Effective grid spacing dv^(1/3) = 0.1713

                     log10-error:    total        iterations:
           time      wfs    density  energy       poisson
iter:   1  16:18:59                 -42.835097           
iter:   2  16:18:59  -1.36  -0.78   -42.551589           
iter:   3  16:18:59  -0.23  -0.80   -42.940708           
iter:   4  16:19:00  -1.52  -0.80   -41.040411           
iter:   5  16:19:00  -3.83  -1.11   -41.116286           
iter:   6  16:19:00  -1.30  -1.08   -40.483204           
iter:   7  16:19:00  -3.21  -2.35   -40.482239           
iter:   8  16:19:00  -4.54  -2.46   -40.481299           
iter:   9  16:19:00  -4.48  -2.67   -40.480666           
iter:  10  16:19:00  -5.84  -3.44   -40.480654           
iter:  11  16:19:00  -6.26  -3.47   -40.480675           
iter:  12  16:19:00  -5.70  -3.47   -40.480660           
iter:  13  16:19:01  -7.13  -3.77   -40.480659           
iter:  14  16:19:01  -7.70  -4.26   -40.480659           
iter:  15  16:19:01  -8.90  -4.33   -40.480659           
iter:  16  16:19:01  -8.60  -4.43   -40.480659           
iter:  17  16:19:01  -8.99  -4.98   -40.480659           
iter:  18  16:19:01 -10.47  -5.36   -40.480659           
iter:  19  16:19:01 -11.73  -5.64   -40.480659           
iter:  20  16:19:01 -10.93  -5.66   -40.480659           
iter:  21  16:19:01 -11.63  -5.84   -40.480659           
iter:  22  16:19:02 -10.81  -5.90   -40.480659           
iter:  23  16:19:02 -12.21  -6.33   -40.480659           

Converged after 23 iterations.

Dipole moment: (-0.894677, 0.516542, 0.000000) |e|*Ang

Energy contributions relative to reference atoms: (reference = -4075.210151)

Kinetic:        +40.219261
Potential:      -40.042498
External:        +0.000000
XC:             -40.704093
Entropy (-ST):   -0.000183
Local:           +0.046763
--------------------------
Free energy:    -40.480751
Extrapolated:   -40.480659

Showing only first 2 kpts
 Kpt  Band  Eigenvalues  Occupancy
  0     6      3.15052    2.00000
  0     7      3.15052    2.00000
  0     8     10.02620    0.00000
  0     9     14.55270    0.00000

  1     6      3.14516    2.00000
  1     7      3.14517    2.00000
  1     8     11.35763    0.00000
  1     9     14.34423    0.00000


Fermi level: 6.11826

No gap
Writing to scf.gpw (mode='')

Timing:                              incl.     excl.
-----------------------------------------------------------
Hamiltonian:                         0.024     0.000   0.0% |
 Atomic:                             0.017     0.017   0.1% |
  XC Correction:                     0.000     0.000   0.0% |
 Calculate atomic Hamiltonians:      0.001     0.001   0.0% |
 Communicate:                        0.000     0.000   0.0% |
 Initialize Hamiltonian:             0.000     0.000   0.0% |
 Poisson:                            0.000     0.000   0.0% |
 XC 3D grid:                         0.005     0.005   0.0% |
LCAO initialization:                 0.675     0.017   0.1% |
 LCAO eigensolver:                   0.211     0.000   0.0% |
  Calculate projections:             0.000     0.000   0.0% |
  DenseAtomicCorrection:             0.000     0.000   0.0% |
  Distribute overlap matrix:         0.034     0.034   0.1% |
  Orbital Layouts:                   0.001     0.001   0.0% |
  Potential matrix:                  0.164     0.164   0.5% |
  Sum over cells:                    0.010     0.010   0.0% |
 LCAO to grid:                       0.324     0.324   1.0% |
 Set positions (LCAO WFS):           0.123     0.023   0.1% |
  Basic WFS set positions:           0.001     0.001   0.0% |
  Basis functions set positions:     0.000     0.000   0.0% |
  P tci:                             0.023     0.023   0.1% |
  ST tci:                            0.053     0.053   0.2% |
  mktci:                             0.023     0.023   0.1% |
PWDescriptor:                        0.016     0.016   0.0% |
SCF-cycle:                           2.610     0.603   1.8% ||
 Davidson:                           1.374     0.277   0.8% |
  Apply H:                           0.202     0.192   0.6% |
   HMM T:                            0.010     0.010   0.0% |
  Subspace diag:                     0.275     0.009   0.0% |
   calc_h_matrix:                    0.230     0.024   0.1% |
    Apply H:                         0.206     0.195   0.6% |
     HMM T:                          0.011     0.011   0.0% |
   diagonalize:                      0.025     0.025   0.1% |
   rotate_psi:                       0.012     0.012   0.0% |
  calc. matrices:                    0.542     0.141   0.4% |
   Apply H:                          0.400     0.380   1.1% |
    HMM T:                           0.020     0.020   0.1% |
  diagonalize:                       0.060     0.060   0.2% |
  rotate_psi:                        0.019     0.019   0.1% |
 Density:                            0.336     0.000   0.0% |
  Atomic density matrices:           0.026     0.026   0.1% |
  Mix:                               0.089     0.089   0.3% |
  Multipole moments:                 0.002     0.002   0.0% |
  Pseudo density:                    0.220     0.118   0.4% |
   Symmetrize density:               0.102     0.102   0.3% |
 Hamiltonian:                        0.290     0.008   0.0% |
  Atomic:                            0.162     0.162   0.5% |
   XC Correction:                    0.000     0.000   0.0% |
  Calculate atomic Hamiltonians:     0.034     0.034   0.1% |
  Communicate:                       0.001     0.001   0.0% |
  Poisson:                           0.002     0.002   0.0% |
  XC 3D grid:                        0.083     0.083   0.2% |
 Orthonormalize:                     0.006     0.000   0.0% |
  calc_s_matrix:                     0.002     0.002   0.0% |
  inverse-cholesky:                  0.001     0.001   0.0% |
  projections:                       0.003     0.003   0.0% |
  rotate_psi_s:                      0.001     0.001   0.0% |
Set symmetry:                        0.029     0.029   0.1% |
Other:                              29.929    29.929  89.9% |-----------------------------------|
-----------------------------------------------------------
Total:                                        33.282 100.0%

Memory usage: 226.38 MiB
Date: Tue Nov  9 16:19:31 2021
