 
             +---------------------------------------------------+
             |                                                   |
             |                   WANNIER90                       |
             |                                                   |
             +---------------------------------------------------+
             |                                                   |
             |        Welcome to the Maximally-Localized         |
             |        Generalized Wannier Functions code         |
             |            http://www.wannier.org                 |
             |                                                   |
             |                                                   |
             |  Wannier90 Developer Group:                       |
             |    Giovanni Pizzi    (EPFL)                       |
             |    Valerio Vitale    (Cambridge)                  |
             |    David Vanderbilt  (Rutgers University)         |
             |    Nicola Marzari    (EPFL)                       |
             |    Ivo Souza         (Universidad del Pais Vasco) |
             |    Arash A. Mostofi  (Imperial College London)    |
             |    Jonathan R. Yates (University of Oxford)       |
             |                                                   |
             |  For the full list of Wannier90 3.x authors,      |
             |  please check the code documentation and the      |
             |  README on the GitHub page of the code            |
             |                                                   |
             |                                                   |
             |  Please cite                                      |
             |                                                   |
             |  [ref] "Wannier90 as a community code:            |
             |        new features and applications",            |
             |        G. Pizzi et al., J. Phys. Cond. Matt. 32,  |
             |        165902 (2020).                             |
             |        http://doi.org/10.1088/1361-648X/ab51ff    |
             |                                                   |
             |  in any publications arising from the use of      |
             |  this code. For the method please cite            |
             |                                                   |
             |  [ref] "Maximally Localized Generalised Wannier   |
             |         Functions for Composite Energy Bands"     |
             |         N. Marzari and D. Vanderbilt              |
             |         Phys. Rev. B 56 12847 (1997)              |
             |                                                   |
             |  [ref] "Maximally Localized Wannier Functions     |
             |         for Entangled Energy Bands"               |
             |         I. Souza, N. Marzari and D. Vanderbilt    |
             |         Phys. Rev. B 65 035109 (2001)             |
             |                                                   |
             |                                                   |
             | Copyright (c) 1996-2020                           |
             |        The Wannier90 Developer Group and          |
             |        individual contributors                    |
             |                                                   |
             |      Release: 3.1.0        5th March    2020      |
             |                                                   |
             | This program is free software; you can            |
             | redistribute it and/or modify it under the terms  |
             | of the GNU General Public License as published by |
             | the Free Software Foundation; either version 2 of |
             | the License, or (at your option) any later version|
             |                                                   |
             | This program is distributed in the hope that it   |
             | will be useful, but WITHOUT ANY WARRANTY; without |
             | even the implied warranty of MERCHANTABILITY or   |
             | FITNESS FOR A PARTICULAR PURPOSE. See the GNU     |
             | General Public License for more details.          |
             |                                                   |
             | You should have received a copy of the GNU General|
             | Public License along with this program; if not,   |
             | write to the Free Software Foundation, Inc.,      |
             | 675 Mass Ave, Cambridge, MA 02139, USA.           |
             |                                                   |
             +---------------------------------------------------+
             |    Execution started on  8Nov2021 at 22:59:20     |
             +---------------------------------------------------+
 
 ******************************************************************************
 * -> Using CODATA 2006 constant values                                       *
 *    (http://physics.nist.gov/cuu/Constants/index.html)                      *
 * -> Using Bohr value from CODATA                                            *
 ******************************************************************************
 

 Running in serial (with parallel executable)
 
                                    ------
                                    SYSTEM
                                    ------
 
                              Lattice Vectors (Ang)
                    a_1     2.447542   0.000000   0.000000
                    a_2    -1.223771   2.119633   0.000000
                    a_3     0.000000   0.000000   6.650791
 
                   Unit Cell Volume:      34.50357  (Ang^3)
 
                        Reciprocal-Space Vectors (Ang^-1)
                    b_1     2.567141   1.482140   0.000000
                    b_2     0.000000   2.964280   0.000000
                    b_3     0.000000   0.000000   0.944727
  
 *----------------------------------------------------------------------------*
 |   Site       Fractional Coordinate          Cartesian Coordinate (Ang)     |
 +----------------------------------------------------------------------------+
 | C    1   0.00000   0.00000   0.00000   |    0.00000   0.00000   0.00000    |
 | C    2   0.33333   0.66667   0.00000   |    0.00000   1.41309   0.00000    |
 | C    3   0.33333   0.66667   0.50000   |    0.00000   1.41309   3.32540    |
 | C    4   0.66667   0.33333   0.50000   |    1.22377   0.70654   3.32540    |
 *----------------------------------------------------------------------------*
                                ------------
                                K-POINT GRID
                                ------------
  
             Grid size = 15 x 15 x  3      Total points =  675
  
  
 *---------------------------------- MAIN ------------------------------------*
 |  Number of Wannier Functions               :                10             |
 |  Number of Objective Wannier Functions     :                10             |
 |  Number of input Bloch states              :                16             |
 |  Output verbosity (1=low, 5=high)          :                 1             |
 |  Timing Level (1=low, 5=high)              :                 1             |
 |  Optimisation (0=memory, 3=speed)          :                 3             |
 |  Length Unit                               :               Ang             |
 |  Post-processing setup (write *.nnkp)      :                 F             |
 |  Using Gamma-only branch of algorithms     :                 F             |
 *----------------------------------------------------------------------------*
 *------------------------------- WANNIERISE ---------------------------------*
 |  Total number of iterations                :               200             |
 |  Number of CG steps before reset           :                 5             |
 |  Trial step length for line search         :             2.000             |
 |  Convergence tolerence                     :         0.100E-09             |
 |  Convergence window                        :                -1             |
 |  Iterations between writing output         :                 1             |
 |  Iterations between backing up to disk     :               100             |
 |  Write r^2_nm to file                      :                 F             |
 |  Write xyz WF centres to file              :                 T             |
 |  Write on-site energies <0n|H|0n> to file  :                 T             |
 |  Use guiding centre to control phases      :                 F             |
 |  Use phases for initial projections        :                 F             |
 *----------------------------------------------------------------------------*
 *------------------------------- DISENTANGLE --------------------------------*
 |  Using band disentanglement                :                 T             |
 |  Total number of iterations                :             10000             |
 |  Mixing ratio                              :             0.500             |
 |  Convergence tolerence                     :         1.000E-10             |
 |  Convergence window                        :                 3             |
 *----------------------------------------------------------------------------*
 *-------------------------------- PLOTTING ----------------------------------*
 |  Plotting interpolated bandstructure       :                 T             |
 |   Number of K-path sections                :                 7             |
 |   Divisions along first K-path section     :               100             |
 |   Output format                            :           gnuplot             |
 |   Output mode                              :               s-k             |
 *----------------------------------------------------------------------------*
 |   K-space path sections:                                                   |
 |    From: G       0.000  0.000  0.000     To: K       0.333  0.333  0.000   |
 |    From: K       0.333  0.333  0.000     To: M       0.500  0.000  0.000   |
 |    From: M       0.500  0.000  0.000     To: G       0.000  0.000  0.000   |
 |    From: G       0.000  0.000  0.000     To: A       0.000  0.000  0.500   |
 |    From: A       0.000  0.000  0.500     To: H       0.333  0.333  0.500   |
 |    From: H       0.333  0.333  0.500     To: L       0.500  0.000  0.500   |
 |    From: L       0.500  0.000  0.500     To: A       0.000  0.000  0.500   |
 *----------------------------------------------------------------------------*
 |  Plotting Hamiltonian in WF basis          :                 T             |
 *----------------------------------------------------------------------------*
 Time to read parameters        0.036 (sec)

 *---------------------------------- K-MESH ----------------------------------*
 +----------------------------------------------------------------------------+
 |                    Distance to Nearest-Neighbour Shells                    |
 |                    ------------------------------------                    |
 |          Shell             Distance (Ang^-1)          Multiplicity         |
 |          -----             -----------------          ------------         |
 |             1                   0.197619                      6            |
 |             2                   0.314909                      2            |
 |             3                   0.342286                      6            |
 |             4                   0.371781                     12            |
 |             5                   0.395237                      6            |
 |             6                   0.465110                     12            |
 |             7                   0.505352                     12            |
 |             8                   0.522850                     12            |
 |             9                   0.592856                      6            |
 |            10                   0.610360                     24            |
 |            11                   0.629818                      2            |
 |            12                   0.660094                     12            |
 |            13                   0.671302                     12            |
 |            14                   0.684571                      6            |
 |            15                   0.712524                     12            |
 |            16                   0.716820                     12            |
 |            17                   0.743561                     12            |
 |            18                   0.753529                     12            |
 |            19                   0.779011                     24            |
 |            20                   0.790475                      6            |
 |            21                   0.818562                     24            |
 |            22                   0.850893                     12            |
 |            23                   0.861400                     12            |
 |            24                   0.864956                     12            |
 |            25                   0.905603                     12            |
 |            26                   0.917157                     24            |
 |            27                   0.930220                     12            |
 |            28                   0.944727                      2            |
 |            29                   0.950980                     24            |
 |            30                   0.958793                     24            |
 |            31                   0.965175                     12            |
 |            32                   0.988093                      6            |
 |            33                   1.004823                     12            |
 |            34                   1.010703                     12            |
 |            35                   1.024072                     12            |
 |            36                   1.026857                      6            |
 +----------------------------------------------------------------------------+
 | The b-vectors are chosen automatically                                     |
 | The following shells are used:   1,  2                                     |
 +----------------------------------------------------------------------------+
 |                        Shell   # Nearest-Neighbours                        |
 |                        -----   --------------------                        |
 |                          1               6                                 |
 |                          2               2                                 |
 +----------------------------------------------------------------------------+
 | Completeness relation is fully satisfied [Eq. (B1), PRB 56, 12847 (1997)]  |
 +----------------------------------------------------------------------------+
 |                  b_k Vectors (Ang^-1) and Weights (Ang^2)                  |
 |                  ----------------------------------------                  |
 |            No.         b_k(x)      b_k(y)      b_k(z)        w_b           |
 |            ---        --------------------------------     --------        |
 |             1         0.000000    0.197619    0.000000     8.535379        |
 |             2         0.171143    0.098809    0.000000     8.535379        |
 |             3        -0.171143   -0.098809    0.000000     8.535379        |
 |             4        -0.171143    0.098809    0.000000     8.535379        |
 |             5         0.000000   -0.197619    0.000000     8.535379        |
 |             6         0.171143   -0.098809    0.000000     8.535379        |
 |             7         0.000000    0.000000    0.314909     5.041961        |
 |             8         0.000000    0.000000   -0.314909     5.041961        |
 +----------------------------------------------------------------------------+
 |                           b_k Directions (Ang^-1)                          |
 |                           -----------------------                          |
 |            No.           x           y           z                         |
 |            ---        --------------------------------                     |
 |             1         0.000000    0.197619    0.000000                     |
 |             2         0.171143    0.098809    0.000000                     |
 |             3        -0.171143    0.098809    0.000000                     |
 |             4         0.000000    0.000000    0.314909                     |
 +----------------------------------------------------------------------------+
  
 Time to get kmesh              0.271 (sec)
 *============================================================================*
 |                              MEMORY ESTIMATE                               |
 |         Maximum RAM allocated during each phase of the calculation         |
 *============================================================================*
 |                        Disentanglement           34.18 Mb                  |
 |                            Wannierise:           24.66 Mb                  |
 |                          plot_wannier:           24.66 Mb                  |
 *----------------------------------------------------------------------------*
  
 Starting a new Wannier90 calculation ...


 Reading overlaps from graphite.mmn    :  Created on  8Nov2021 at 22:47:23

 Reading projections from graphite.amn :  Created on  8Nov2021 at 22:47:12

 Time to read overlaps          0.905 (sec)

 *------------------------------- DISENTANGLE --------------------------------*
 +----------------------------------------------------------------------------+
 |                              Energy  Windows                               |
 |                              ---------------                               |
 |                   Outer:  -12.64113  to   19.00000  (eV)                   |
 |                   No frozen states were specified                          |
 +----------------------------------------------------------------------------+
   Number of target bands to extract:   10

                   Unitarised projection of Wannier functions                  
                   ------------------------------------------                  
   A_mn = <psi_m|g_n> --> S = A.A^+ --> U = S^-1/2.A
   In dis_project... done
   No inner window (linner = F)

                   Extraction of optimally-connected subspace                  
                   ------------------------------------------                  
 +---------------------------------------------------------------------+<-- DIS
 |  Iter     Omega_I(i-1)      Omega_I(i)      Delta (frac.)    Time   |<-- DIS
 +---------------------------------------------------------------------+<-- DIS
       1       6.46111579       6.25278265       3.332E-02      0.00    <-- DIS
       2       6.34965875       6.19940580       2.424E-02      0.03    <-- DIS
       3       6.26938756       6.16105329       1.758E-02      0.07    <-- DIS
       4       6.21133540       6.13178136       1.297E-02      0.10    <-- DIS
       5       6.16849770       6.10853368       9.816E-03      0.14    <-- DIS
       6       6.13602496       6.08949143       7.642E-03      0.17    <-- DIS
       7       6.11067770       6.07350064       6.121E-03      0.20    <-- DIS
       8       6.09031410       6.05979776       5.036E-03      0.23    <-- DIS
       9       6.07351506       6.04786011       4.242E-03      0.27    <-- DIS
      10       6.05933097       6.03731905       3.646E-03      0.30    <-- DIS
      11       6.04711671       6.02790752       3.187E-03      0.33    <-- DIS
      12       6.03642558       6.01942734       2.824E-03      0.37    <-- DIS
      13       6.02694165       6.01172816       2.531E-03      0.40    <-- DIS
      14       6.01843637       6.00469358       2.289E-03      0.43    <-- DIS
      15       6.01074060       5.99823184       2.085E-03      0.47    <-- DIS
      16       6.00372633       5.99226942       1.912E-03      0.50    <-- DIS
      17       5.99729460       5.98674643       1.762E-03      0.53    <-- DIS
      18       5.99136740       5.98161351       1.631E-03      0.56    <-- DIS
      19       5.98588212       5.97682938       1.515E-03      0.60    <-- DIS
      20       5.98078766       5.97235919       1.411E-03      0.63    <-- DIS
      21       5.97604172       5.96817316       1.318E-03      0.66    <-- DIS
      22       5.97160879       5.96424566       1.235E-03      0.70    <-- DIS
      23       5.96745876       5.96055441       1.158E-03      0.73    <-- DIS
      24       5.96356578       5.95707989       1.089E-03      0.76    <-- DIS
      25       5.95990748       5.95380490       1.025E-03      0.79    <-- DIS
      26       5.95646431       5.95071418       9.663E-04      0.83    <-- DIS
      27       5.95321911       5.94779411       9.121E-04      0.86    <-- DIS
      28       5.95015663       5.94503248       8.619E-04      0.89    <-- DIS
      29       5.94726334       5.94241827       8.153E-04      0.93    <-- DIS
      30       5.94452706       5.93994152       7.720E-04      0.96    <-- DIS
      31       5.94193687       5.93759317       7.316E-04      0.99    <-- DIS
      32       5.93948286       5.93536496       6.938E-04      1.02    <-- DIS
      33       5.93715606       5.93324935       6.584E-04      1.06    <-- DIS
      34       5.93494826       5.93123938       6.253E-04      1.09    <-- DIS
      35       5.93285198       5.92932870       5.942E-04      1.12    <-- DIS
      36       5.93086035       5.92751140       5.650E-04      1.15    <-- DIS
      37       5.92896704       5.92578206       5.375E-04      1.19    <-- DIS
      38       5.92716623       5.92413562       5.116E-04      1.22    <-- DIS
      39       5.92545252       5.92256742       4.871E-04      1.25    <-- DIS
      40       5.92382094       5.92107310       4.641E-04      1.29    <-- DIS
      41       5.92226684       5.91964862       4.423E-04      1.32    <-- DIS
      42       5.92078592       5.91829019       4.217E-04      1.35    <-- DIS
      43       5.91937417       5.91699429       4.022E-04      1.38    <-- DIS
      44       5.91802784       5.91575761       3.838E-04      1.42    <-- DIS
      45       5.91674345       5.91457707       3.663E-04      1.45    <-- DIS
      46       5.91551773       5.91344976       3.497E-04      1.48    <-- DIS
      47       5.91434761       5.91237297       3.340E-04      1.52    <-- DIS
      48       5.91323023       5.91134415       3.191E-04      1.55    <-- DIS
      49       5.91216289       5.91036089       3.049E-04      1.58    <-- DIS
      50       5.91114307       5.90942092       2.914E-04      1.61    <-- DIS
      51       5.91016840       5.90852214       2.786E-04      1.65    <-- DIS
      52       5.90923662       5.90766251       2.665E-04      1.68    <-- DIS
      53       5.90834564       5.90684016       2.549E-04      1.71    <-- DIS
      54       5.90749346       5.90605330       2.438E-04      1.74    <-- DIS
      55       5.90667822       5.90530024       2.333E-04      1.78    <-- DIS
      56       5.90589814       5.90457937       2.233E-04      1.82    <-- DIS
      57       5.90515155       5.90388920       2.138E-04      1.85    <-- DIS
      58       5.90443687       5.90322830       2.047E-04      1.89    <-- DIS
      59       5.90375261       5.90259530       1.961E-04      1.92    <-- DIS
      60       5.90309734       5.90198893       1.878E-04      1.95    <-- DIS
      61       5.90246974       5.90140798       1.799E-04      1.98    <-- DIS
      62       5.90186853       5.90085128       1.724E-04      2.02    <-- DIS
      63       5.90129251       5.90031776       1.652E-04      2.05    <-- DIS
      64       5.90074053       5.89980636       1.583E-04      2.08    <-- DIS
      65       5.90021152       5.89931610       1.518E-04      2.12    <-- DIS
      66       5.89970443       5.89884605       1.455E-04      2.15    <-- DIS
      67       5.89921831       5.89839531       1.395E-04      2.18    <-- DIS
      68       5.89875221       5.89796303       1.338E-04      2.22    <-- DIS
      69       5.89830525       5.89754842       1.283E-04      2.25    <-- DIS
      70       5.89787660       5.89715069       1.231E-04      2.28    <-- DIS
      71       5.89746546       5.89676913       1.181E-04      2.32    <-- DIS
      72       5.89707106       5.89640303       1.133E-04      2.35    <-- DIS
      73       5.89669268       5.89605174       1.087E-04      2.38    <-- DIS
      74       5.89632963       5.89571461       1.043E-04      2.41    <-- DIS
      75       5.89598126       5.89539105       1.001E-04      2.45    <-- DIS
      76       5.89564694       5.89508048       9.609E-05      2.48    <-- DIS
      77       5.89532606       5.89478235       9.224E-05      2.51    <-- DIS
      78       5.89501807       5.89449615       8.854E-05      2.55    <-- DIS
      79       5.89472241       5.89422137       8.501E-05      2.58    <-- DIS
      80       5.89443858       5.89395753       8.162E-05      2.61    <-- DIS
      81       5.89416606       5.89370418       7.837E-05      2.64    <-- DIS
      82       5.89390440       5.89346088       7.526E-05      2.68    <-- DIS
      83       5.89365314       5.89322722       7.227E-05      2.71    <-- DIS
      84       5.89341185       5.89300281       6.941E-05      2.74    <-- DIS
      85       5.89318011       5.89278725       6.667E-05      2.78    <-- DIS
      86       5.89295754       5.89258019       6.404E-05      2.81    <-- DIS
      87       5.89274375       5.89238128       6.152E-05      2.84    <-- DIS
      88       5.89253839       5.89219019       5.910E-05      2.87    <-- DIS
      89       5.89234111       5.89200659       5.677E-05      2.91    <-- DIS
      90       5.89215158       5.89183020       5.455E-05      2.94    <-- DIS
      91       5.89196949       5.89166071       5.241E-05      2.97    <-- DIS
      92       5.89179454       5.89149784       5.036E-05      3.01    <-- DIS
      93       5.89162643       5.89134133       4.839E-05      3.04    <-- DIS
      94       5.89146490       5.89119093       4.650E-05      3.07    <-- DIS
      95       5.89130967       5.89104639       4.469E-05      3.10    <-- DIS
      96       5.89116049       5.89090746       4.295E-05      3.14    <-- DIS
      97       5.89101712       5.89077394       4.128E-05      3.17    <-- DIS
      98       5.89087933       5.89064561       3.968E-05      3.20    <-- DIS
      99       5.89074690       5.89052225       3.814E-05      3.23    <-- DIS
     100       5.89061960       5.89040367       3.666E-05      3.27    <-- DIS
     101       5.89049725       5.89028968       3.524E-05      3.30    <-- DIS
     102       5.89037963       5.89018010       3.388E-05      3.33    <-- DIS
     103       5.89026657       5.89007475       3.257E-05      3.37    <-- DIS
     104       5.89015787       5.88997347       3.131E-05      3.40    <-- DIS
     105       5.89005338       5.88987610       3.010E-05      3.43    <-- DIS
     106       5.88995293       5.88978248       2.894E-05      3.46    <-- DIS
     107       5.88985634       5.88969247       2.782E-05      3.50    <-- DIS
     108       5.88976348       5.88960593       2.675E-05      3.53    <-- DIS
     109       5.88967420       5.88952271       2.572E-05      3.56    <-- DIS
     110       5.88958835       5.88944269       2.473E-05      3.60    <-- DIS
     111       5.88950581       5.88936574       2.378E-05      3.63    <-- DIS
     112       5.88942643       5.88929174       2.287E-05      3.66    <-- DIS
     113       5.88935011       5.88922059       2.199E-05      3.69    <-- DIS
     114       5.88927671       5.88915216       2.115E-05      3.73    <-- DIS
     115       5.88920613       5.88908635       2.034E-05      3.76    <-- DIS
     116       5.88913825       5.88902307       1.956E-05      3.79    <-- DIS
     117       5.88907298       5.88896220       1.881E-05      3.82    <-- DIS
     118       5.88901020       5.88890366       1.809E-05      3.86    <-- DIS
     119       5.88894983       5.88884736       1.740E-05      3.89    <-- DIS
     120       5.88889176       5.88879322       1.673E-05      3.93    <-- DIS
     121       5.88883592       5.88874114       1.610E-05      3.96    <-- DIS
     122       5.88878220       5.88869104       1.548E-05      3.99    <-- DIS
     123       5.88873054       5.88864286       1.489E-05      4.02    <-- DIS
     124       5.88868085       5.88859652       1.432E-05      4.06    <-- DIS
     125       5.88863306       5.88855194       1.378E-05      4.09    <-- DIS
     126       5.88858709       5.88850906       1.325E-05      4.12    <-- DIS
     127       5.88854287       5.88846781       1.275E-05      4.16    <-- DIS
     128       5.88850033       5.88842814       1.226E-05      4.19    <-- DIS
     129       5.88845942       5.88838997       1.179E-05      4.22    <-- DIS
     130       5.88842006       5.88835325       1.135E-05      4.26    <-- DIS
     131       5.88838220       5.88831794       1.091E-05      4.29    <-- DIS
     132       5.88834578       5.88828396       1.050E-05      4.32    <-- DIS
     133       5.88831075       5.88825128       1.010E-05      4.35    <-- DIS
     134       5.88827704       5.88821983       9.716E-06      4.39    <-- DIS
     135       5.88824462       5.88818958       9.347E-06      4.42    <-- DIS
     136       5.88821343       5.88816048       8.992E-06      4.45    <-- DIS
     137       5.88818342       5.88813249       8.651E-06      4.49    <-- DIS
     138       5.88815456       5.88810555       8.322E-06      4.52    <-- DIS
     139       5.88812678       5.88807964       8.007E-06      4.55    <-- DIS
     140       5.88810007       5.88805471       7.703E-06      4.58    <-- DIS
     141       5.88807436       5.88803073       7.411E-06      4.62    <-- DIS
     142       5.88804963       5.88800765       7.130E-06      4.65    <-- DIS
     143       5.88802584       5.88798545       6.860E-06      4.68    <-- DIS
     144       5.88800295       5.88796409       6.600E-06      4.72    <-- DIS
     145       5.88798093       5.88794354       6.350E-06      4.75    <-- DIS
     146       5.88795974       5.88792376       6.109E-06      4.78    <-- DIS
     147       5.88793935       5.88790474       5.878E-06      4.81    <-- DIS
     148       5.88791973       5.88788643       5.656E-06      4.85    <-- DIS
     149       5.88790086       5.88786882       5.442E-06      4.88    <-- DIS
     150       5.88788270       5.88785188       5.236E-06      4.91    <-- DIS
     151       5.88786523       5.88783557       5.038E-06      4.95    <-- DIS
     152       5.88784842       5.88781988       4.847E-06      4.98    <-- DIS
     153       5.88783225       5.88780479       4.664E-06      5.01    <-- DIS
     154       5.88781668       5.88779026       4.488E-06      5.04    <-- DIS
     155       5.88780171       5.88777629       4.318E-06      5.08    <-- DIS
     156       5.88778730       5.88776284       4.155E-06      5.11    <-- DIS
     157       5.88777344       5.88774990       3.998E-06      5.14    <-- DIS
     158       5.88776010       5.88773745       3.847E-06      5.17    <-- DIS
     159       5.88774726       5.88772547       3.701E-06      5.21    <-- DIS
     160       5.88773491       5.88771394       3.562E-06      5.24    <-- DIS
     161       5.88772302       5.88770284       3.427E-06      5.27    <-- DIS
     162       5.88771159       5.88769217       3.298E-06      5.31    <-- DIS
     163       5.88770058       5.88768190       3.173E-06      5.34    <-- DIS
     164       5.88768999       5.88767201       3.054E-06      5.37    <-- DIS
     165       5.88767980       5.88766250       2.938E-06      5.40    <-- DIS
     166       5.88767000       5.88765335       2.828E-06      5.44    <-- DIS
     167       5.88766056       5.88764454       2.721E-06      5.47    <-- DIS
     168       5.88765148       5.88763607       2.618E-06      5.50    <-- DIS
     169       5.88764275       5.88762791       2.519E-06      5.53    <-- DIS
     170       5.88763434       5.88762006       2.424E-06      5.57    <-- DIS
     171       5.88762625       5.88761251       2.333E-06      5.60    <-- DIS
     172       5.88761846       5.88760525       2.245E-06      5.63    <-- DIS
     173       5.88761097       5.88759825       2.160E-06      5.67    <-- DIS
     174       5.88760376       5.88759152       2.079E-06      5.70    <-- DIS
     175       5.88759682       5.88758505       2.001E-06      5.73    <-- DIS
     176       5.88759015       5.88757881       1.925E-06      5.76    <-- DIS
     177       5.88758372       5.88757282       1.853E-06      5.80    <-- DIS
     178       5.88757754       5.88756704       1.783E-06      5.83    <-- DIS
     179       5.88757159       5.88756149       1.716E-06      5.86    <-- DIS
     180       5.88756587       5.88755615       1.651E-06      5.90    <-- DIS
     181       5.88756036       5.88755100       1.589E-06      5.93    <-- DIS
     182       5.88755505       5.88754605       1.529E-06      5.96    <-- DIS
     183       5.88754995       5.88754129       1.472E-06      6.00    <-- DIS
     184       5.88754504       5.88753670       1.416E-06      6.03    <-- DIS
     185       5.88754032       5.88753229       1.363E-06      6.06    <-- DIS
     186       5.88753577       5.88752805       1.312E-06      6.10    <-- DIS
     187       5.88753139       5.88752396       1.262E-06      6.13    <-- DIS
     188       5.88752718       5.88752003       1.215E-06      6.16    <-- DIS
     189       5.88752313       5.88751624       1.169E-06      6.19    <-- DIS
     190       5.88751923       5.88751260       1.125E-06      6.23    <-- DIS
     191       5.88751547       5.88750910       1.083E-06      6.26    <-- DIS
     192       5.88751186       5.88750573       1.042E-06      6.30    <-- DIS
     193       5.88750838       5.88750248       1.003E-06      6.33    <-- DIS
     194       5.88750504       5.88749936       9.650E-07      6.36    <-- DIS
     195       5.88750182       5.88749635       9.287E-07      6.39    <-- DIS
     196       5.88749872       5.88749346       8.937E-07      6.43    <-- DIS
     197       5.88749574       5.88749067       8.601E-07      6.46    <-- DIS
     198       5.88749287       5.88748799       8.278E-07      6.49    <-- DIS
     199       5.88749010       5.88748541       7.966E-07      6.53    <-- DIS
     200       5.88748744       5.88748293       7.667E-07      6.56    <-- DIS
     201       5.88748489       5.88748054       7.379E-07      6.59    <-- DIS
     202       5.88748242       5.88747824       7.101E-07      6.62    <-- DIS
     203       5.88748005       5.88747603       6.834E-07      6.66    <-- DIS
     204       5.88747777       5.88747390       6.577E-07      6.69    <-- DIS
     205       5.88747558       5.88747185       6.330E-07      6.72    <-- DIS
     206       5.88747347       5.88746988       6.092E-07      6.76    <-- DIS
     207       5.88747143       5.88746798       5.863E-07      6.79    <-- DIS
     208       5.88746948       5.88746616       5.643E-07      6.82    <-- DIS
     209       5.88746759       5.88746440       5.431E-07      6.85    <-- DIS
     210       5.88746578       5.88746271       5.226E-07      6.89    <-- DIS
     211       5.88746404       5.88746108       5.030E-07      6.92    <-- DIS
     212       5.88746236       5.88745951       4.841E-07      6.95    <-- DIS
     213       5.88746074       5.88745800       4.659E-07      6.99    <-- DIS
     214       5.88745919       5.88745655       4.484E-07      7.02    <-- DIS
     215       5.88745769       5.88745515       4.316E-07      7.05    <-- DIS
     216       5.88745625       5.88745381       4.153E-07      7.08    <-- DIS
     217       5.88745487       5.88745251       3.997E-07      7.12    <-- DIS
     218       5.88745353       5.88745127       3.847E-07      7.15    <-- DIS
     219       5.88745225       5.88745007       3.703E-07      7.18    <-- DIS
     220       5.88745101       5.88744892       3.564E-07      7.21    <-- DIS
     221       5.88744983       5.88744781       3.430E-07      7.25    <-- DIS
     222       5.88744868       5.88744674       3.301E-07      7.28    <-- DIS
     223       5.88744758       5.88744571       3.177E-07      7.31    <-- DIS
     224       5.88744652       5.88744472       3.058E-07      7.35    <-- DIS
     225       5.88744550       5.88744377       2.943E-07      7.38    <-- DIS
     226       5.88744452       5.88744285       2.832E-07      7.41    <-- DIS
     227       5.88744357       5.88744197       2.726E-07      7.44    <-- DIS
     228       5.88744266       5.88744112       2.624E-07      7.48    <-- DIS
     229       5.88744179       5.88744030       2.525E-07      7.51    <-- DIS
     230       5.88744094       5.88743951       2.430E-07      7.54    <-- DIS
     231       5.88744013       5.88743876       2.339E-07      7.58    <-- DIS
     232       5.88743935       5.88743803       2.251E-07      7.61    <-- DIS
     233       5.88743860       5.88743733       2.167E-07      7.64    <-- DIS
     234       5.88743788       5.88743665       2.085E-07      7.67    <-- DIS
     235       5.88743718       5.88743600       2.007E-07      7.71    <-- DIS
     236       5.88743651       5.88743538       1.932E-07      7.74    <-- DIS
     237       5.88743587       5.88743477       1.859E-07      7.77    <-- DIS
     238       5.88743525       5.88743419       1.789E-07      7.81    <-- DIS
     239       5.88743465       5.88743364       1.722E-07      7.84    <-- DIS
     240       5.88743408       5.88743310       1.658E-07      7.87    <-- DIS
     241       5.88743352       5.88743258       1.595E-07      7.90    <-- DIS
     242       5.88743299       5.88743209       1.535E-07      7.94    <-- DIS
     243       5.88743248       5.88743161       1.478E-07      7.97    <-- DIS
     244       5.88743199       5.88743115       1.422E-07      8.01    <-- DIS
     245       5.88743151       5.88743070       1.369E-07      8.04    <-- DIS
     246       5.88743105       5.88743028       1.318E-07      8.07    <-- DIS
     247       5.88743061       5.88742987       1.268E-07      8.10    <-- DIS
     248       5.88743019       5.88742947       1.221E-07      8.14    <-- DIS
     249       5.88742978       5.88742909       1.175E-07      8.17    <-- DIS
     250       5.88742939       5.88742873       1.131E-07      8.20    <-- DIS
     251       5.88742901       5.88742837       1.088E-07      8.24    <-- DIS
     252       5.88742865       5.88742803       1.047E-07      8.27    <-- DIS
     253       5.88742830       5.88742771       1.008E-07      8.30    <-- DIS
     254       5.88742797       5.88742739       9.703E-08      8.34    <-- DIS
     255       5.88742764       5.88742709       9.339E-08      8.37    <-- DIS
     256       5.88742733       5.88742680       8.989E-08      8.40    <-- DIS
     257       5.88742703       5.88742652       8.651E-08      8.43    <-- DIS
     258       5.88742674       5.88742625       8.327E-08      8.47    <-- DIS
     259       5.88742646       5.88742599       8.014E-08      8.50    <-- DIS
     260       5.88742620       5.88742574       7.714E-08      8.53    <-- DIS
     261       5.88742594       5.88742550       7.424E-08      8.57    <-- DIS
     262       5.88742569       5.88742527       7.146E-08      8.60    <-- DIS
     263       5.88742545       5.88742505       6.878E-08      8.63    <-- DIS
     264       5.88742522       5.88742483       6.620E-08      8.66    <-- DIS
     265       5.88742500       5.88742463       6.371E-08      8.70    <-- DIS
     266       5.88742479       5.88742443       6.132E-08      8.73    <-- DIS
     267       5.88742458       5.88742424       5.902E-08      8.76    <-- DIS
     268       5.88742439       5.88742405       5.681E-08      8.80    <-- DIS
     269       5.88742420       5.88742388       5.468E-08      8.83    <-- DIS
     270       5.88742402       5.88742371       5.263E-08      8.86    <-- DIS
     271       5.88742384       5.88742354       5.065E-08      8.89    <-- DIS
     272       5.88742367       5.88742338       4.875E-08      8.93    <-- DIS
     273       5.88742351       5.88742323       4.693E-08      8.96    <-- DIS
     274       5.88742335       5.88742309       4.517E-08      8.99    <-- DIS
     275       5.88742320       5.88742294       4.347E-08      9.02    <-- DIS
     276       5.88742306       5.88742281       4.184E-08      9.06    <-- DIS
     277       5.88742292       5.88742268       4.027E-08      9.09    <-- DIS
     278       5.88742278       5.88742255       3.876E-08      9.12    <-- DIS
     279       5.88742265       5.88742243       3.731E-08      9.16    <-- DIS
     280       5.88742253       5.88742232       3.591E-08      9.19    <-- DIS
     281       5.88742241       5.88742220       3.456E-08      9.22    <-- DIS
     282       5.88742229       5.88742210       3.327E-08      9.25    <-- DIS
     283       5.88742218       5.88742199       3.202E-08      9.29    <-- DIS
     284       5.88742207       5.88742189       3.082E-08      9.32    <-- DIS
     285       5.88742197       5.88742180       2.966E-08      9.35    <-- DIS
     286       5.88742187       5.88742171       2.855E-08      9.39    <-- DIS
     287       5.88742178       5.88742162       2.748E-08      9.42    <-- DIS
     288       5.88742169       5.88742153       2.645E-08      9.45    <-- DIS
     289       5.88742160       5.88742145       2.546E-08      9.48    <-- DIS
     290       5.88742151       5.88742137       2.450E-08      9.52    <-- DIS
     291       5.88742143       5.88742129       2.358E-08      9.55    <-- DIS
     292       5.88742135       5.88742122       2.270E-08      9.58    <-- DIS
     293       5.88742128       5.88742115       2.185E-08      9.62    <-- DIS
     294       5.88742120       5.88742108       2.103E-08      9.65    <-- DIS
     295       5.88742113       5.88742101       2.024E-08      9.68    <-- DIS
     296       5.88742107       5.88742095       1.948E-08      9.71    <-- DIS
     297       5.88742100       5.88742089       1.875E-08      9.75    <-- DIS
     298       5.88742094       5.88742083       1.805E-08      9.78    <-- DIS
     299       5.88742088       5.88742078       1.737E-08      9.81    <-- DIS
     300       5.88742082       5.88742072       1.672E-08      9.84    <-- DIS
     301       5.88742076       5.88742067       1.609E-08      9.88    <-- DIS
     302       5.88742071       5.88742062       1.549E-08      9.91    <-- DIS
     303       5.88742066       5.88742057       1.491E-08      9.94    <-- DIS
     304       5.88742061       5.88742052       1.435E-08      9.98    <-- DIS
     305       5.88742056       5.88742048       1.381E-08     10.01    <-- DIS
     306       5.88742052       5.88742044       1.330E-08     10.04    <-- DIS
     307       5.88742047       5.88742040       1.280E-08     10.08    <-- DIS
     308       5.88742043       5.88742036       1.232E-08     10.11    <-- DIS
     309       5.88742039       5.88742032       1.186E-08     10.14    <-- DIS
     310       5.88742035       5.88742028       1.141E-08     10.18    <-- DIS
     311       5.88742031       5.88742024       1.098E-08     10.21    <-- DIS
     312       5.88742027       5.88742021       1.057E-08     10.24    <-- DIS
     313       5.88742024       5.88742018       1.018E-08     10.28    <-- DIS
     314       5.88742020       5.88742015       9.794E-09     10.31    <-- DIS
     315       5.88742017       5.88742012       9.427E-09     10.34    <-- DIS
     316       5.88742014       5.88742009       9.074E-09     10.38    <-- DIS
     317       5.88742011       5.88742006       8.734E-09     10.41    <-- DIS
     318       5.88742008       5.88742003       8.406E-09     10.44    <-- DIS
     319       5.88742005       5.88742000       8.091E-09     10.48    <-- DIS
     320       5.88742003       5.88741998       7.788E-09     10.51    <-- DIS
     321       5.88742000       5.88741995       7.496E-09     10.54    <-- DIS
     322       5.88741997       5.88741993       7.215E-09     10.57    <-- DIS
     323       5.88741995       5.88741991       6.945E-09     10.61    <-- DIS
     324       5.88741993       5.88741989       6.684E-09     10.64    <-- DIS
     325       5.88741990       5.88741987       6.434E-09     10.67    <-- DIS
     326       5.88741988       5.88741985       6.193E-09     10.70    <-- DIS
     327       5.88741986       5.88741983       5.961E-09     10.74    <-- DIS
     328       5.88741984       5.88741981       5.737E-09     10.77    <-- DIS
     329       5.88741982       5.88741979       5.522E-09     10.80    <-- DIS
     330       5.88741980       5.88741977       5.315E-09     10.84    <-- DIS
     331       5.88741979       5.88741976       5.116E-09     10.87    <-- DIS
     332       5.88741977       5.88741974       4.924E-09     10.90    <-- DIS
     333       5.88741975       5.88741973       4.740E-09     10.93    <-- DIS
     334       5.88741974       5.88741971       4.562E-09     10.97    <-- DIS
     335       5.88741972       5.88741970       4.391E-09     11.00    <-- DIS
     336       5.88741971       5.88741968       4.227E-09     11.03    <-- DIS
     337       5.88741969       5.88741967       4.068E-09     11.07    <-- DIS
     338       5.88741968       5.88741966       3.916E-09     11.10    <-- DIS
     339       5.88741967       5.88741964       3.769E-09     11.13    <-- DIS
     340       5.88741965       5.88741963       3.628E-09     11.16    <-- DIS
     341       5.88741964       5.88741962       3.492E-09     11.20    <-- DIS
     342       5.88741963       5.88741961       3.361E-09     11.23    <-- DIS
     343       5.88741962       5.88741960       3.235E-09     11.26    <-- DIS
     344       5.88741961       5.88741959       3.114E-09     11.30    <-- DIS
     345       5.88741960       5.88741958       2.997E-09     11.33    <-- DIS
     346       5.88741959       5.88741957       2.885E-09     11.36    <-- DIS
     347       5.88741958       5.88741956       2.777E-09     11.39    <-- DIS
     348       5.88741957       5.88741955       2.673E-09     11.43    <-- DIS
     349       5.88741956       5.88741955       2.573E-09     11.46    <-- DIS
     350       5.88741955       5.88741954       2.476E-09     11.49    <-- DIS
     351       5.88741954       5.88741953       2.383E-09     11.52    <-- DIS
     352       5.88741954       5.88741952       2.294E-09     11.56    <-- DIS
     353       5.88741953       5.88741952       2.208E-09     11.59    <-- DIS
     354       5.88741952       5.88741951       2.125E-09     11.62    <-- DIS
     355       5.88741951       5.88741950       2.046E-09     11.66    <-- DIS
     356       5.88741951       5.88741950       1.969E-09     11.69    <-- DIS
     357       5.88741950       5.88741949       1.895E-09     11.72    <-- DIS
     358       5.88741949       5.88741948       1.824E-09     11.75    <-- DIS
     359       5.88741949       5.88741948       1.756E-09     11.79    <-- DIS
     360       5.88741948       5.88741947       1.690E-09     11.82    <-- DIS
     361       5.88741948       5.88741947       1.627E-09     11.85    <-- DIS
     362       5.88741947       5.88741946       1.566E-09     11.89    <-- DIS
     363       5.88741947       5.88741946       1.507E-09     11.92    <-- DIS
     364       5.88741946       5.88741945       1.451E-09     11.95    <-- DIS
     365       5.88741946       5.88741945       1.396E-09     11.98    <-- DIS
     366       5.88741945       5.88741944       1.344E-09     12.02    <-- DIS
     367       5.88741945       5.88741944       1.294E-09     12.05    <-- DIS
     368       5.88741944       5.88741944       1.245E-09     12.09    <-- DIS
     369       5.88741944       5.88741943       1.199E-09     12.13    <-- DIS
     370       5.88741943       5.88741943       1.154E-09     12.16    <-- DIS
     371       5.88741943       5.88741942       1.110E-09     12.19    <-- DIS
     372       5.88741943       5.88741942       1.069E-09     12.23    <-- DIS
     373       5.88741942       5.88741942       1.029E-09     12.26    <-- DIS
     374       5.88741942       5.88741941       9.902E-10     12.29    <-- DIS
     375       5.88741942       5.88741941       9.531E-10     12.33    <-- DIS
     376       5.88741941       5.88741941       9.174E-10     12.36    <-- DIS
     377       5.88741941       5.88741940       8.830E-10     12.39    <-- DIS
     378       5.88741941       5.88741940       8.500E-10     12.43    <-- DIS
     379       5.88741940       5.88741940       8.181E-10     12.46    <-- DIS
     380       5.88741940       5.88741940       7.875E-10     12.49    <-- DIS
     381       5.88741940       5.88741939       7.580E-10     12.52    <-- DIS
     382       5.88741940       5.88741939       7.296E-10     12.56    <-- DIS
     383       5.88741939       5.88741939       7.022E-10     12.59    <-- DIS
     384       5.88741939       5.88741939       6.759E-10     12.62    <-- DIS
     385       5.88741939       5.88741939       6.506E-10     12.66    <-- DIS
     386       5.88741939       5.88741938       6.262E-10     12.69    <-- DIS
     387       5.88741939       5.88741938       6.028E-10     12.72    <-- DIS
     388       5.88741938       5.88741938       5.802E-10     12.75    <-- DIS
     389       5.88741938       5.88741938       5.584E-10     12.79    <-- DIS
     390       5.88741938       5.88741938       5.375E-10     12.82    <-- DIS
     391       5.88741938       5.88741937       5.174E-10     12.85    <-- DIS
     392       5.88741938       5.88741937       4.980E-10     12.89    <-- DIS
     393       5.88741937       5.88741937       4.794E-10     12.92    <-- DIS
     394       5.88741937       5.88741937       4.614E-10     12.95    <-- DIS
     395       5.88741937       5.88741937       4.441E-10     12.98    <-- DIS
     396       5.88741937       5.88741937       4.275E-10     13.02    <-- DIS
     397       5.88741937       5.88741937       4.115E-10     13.05    <-- DIS
     398       5.88741937       5.88741936       3.960E-10     13.08    <-- DIS
     399       5.88741937       5.88741936       3.812E-10     13.11    <-- DIS
     400       5.88741936       5.88741936       3.669E-10     13.15    <-- DIS
     401       5.88741936       5.88741936       3.532E-10     13.18    <-- DIS
     402       5.88741936       5.88741936       3.399E-10     13.21    <-- DIS
     403       5.88741936       5.88741936       3.272E-10     13.25    <-- DIS
     404       5.88741936       5.88741936       3.150E-10     13.28    <-- DIS
     405       5.88741936       5.88741936       3.032E-10     13.31    <-- DIS
     406       5.88741936       5.88741936       2.918E-10     13.34    <-- DIS
     407       5.88741936       5.88741935       2.809E-10     13.38    <-- DIS
     408       5.88741936       5.88741935       2.703E-10     13.41    <-- DIS
     409       5.88741935       5.88741935       2.602E-10     13.44    <-- DIS
     410       5.88741935       5.88741935       2.505E-10     13.48    <-- DIS
     411       5.88741935       5.88741935       2.411E-10     13.51    <-- DIS
     412       5.88741935       5.88741935       2.321E-10     13.54    <-- DIS
     413       5.88741935       5.88741935       2.234E-10     13.57    <-- DIS
     414       5.88741935       5.88741935       2.150E-10     13.61    <-- DIS
     415       5.88741935       5.88741935       2.069E-10     13.64    <-- DIS
     416       5.88741935       5.88741935       1.992E-10     13.67    <-- DIS
     417       5.88741935       5.88741935       1.917E-10     13.71    <-- DIS
     418       5.88741935       5.88741935       1.845E-10     13.74    <-- DIS
     419       5.88741935       5.88741935       1.776E-10     13.77    <-- DIS
     420       5.88741935       5.88741935       1.710E-10     13.80    <-- DIS
     421       5.88741935       5.88741935       1.646E-10     13.84    <-- DIS
     422       5.88741935       5.88741934       1.584E-10     13.87    <-- DIS
     423       5.88741935       5.88741934       1.525E-10     13.90    <-- DIS
     424       5.88741934       5.88741934       1.468E-10     13.94    <-- DIS
     425       5.88741934       5.88741934       1.413E-10     13.97    <-- DIS
     426       5.88741934       5.88741934       1.360E-10     14.00    <-- DIS
     427       5.88741934       5.88741934       1.309E-10     14.03    <-- DIS
     428       5.88741934       5.88741934       1.260E-10     14.07    <-- DIS
     429       5.88741934       5.88741934       1.213E-10     14.10    <-- DIS
     430       5.88741934       5.88741934       1.167E-10     14.14    <-- DIS
     431       5.88741934       5.88741934       1.123E-10     14.17    <-- DIS
     432       5.88741934       5.88741934       1.081E-10     14.20    <-- DIS
     433       5.88741934       5.88741934       1.041E-10     14.23    <-- DIS
     434       5.88741934       5.88741934       1.002E-10     14.27    <-- DIS
     435       5.88741934       5.88741934       9.643E-11     14.30    <-- DIS
     436       5.88741934       5.88741934       9.282E-11     14.33    <-- DIS
     437       5.88741934       5.88741934       8.935E-11     14.37    <-- DIS

             <<<      Delta < 1.000E-10  over  3 iterations     >>>
             <<< Disentanglement convergence criteria satisfied >>>

        Final Omega_I     5.88741934 (Ang^2)

 +----------------------------------------------------------------------------+

 Time to disentangle bands     14.490 (sec)

 Writing checkpoint file graphite.chk... done

 
 *------------------------------- WANNIERISE ---------------------------------*
 +--------------------------------------------------------------------+<-- CONV
 | Iter  Delta Spread     RMS Gradient      Spread (Ang^2)      Time  |<-- CONV
 +--------------------------------------------------------------------+<-- CONV
 
 ------------------------------------------------------------------------------
 Initial State
  WF centre and spread    1  ( -0.000000,  0.000000,  0.000000 )     0.96731966
  WF centre and spread    2  ( -0.000000,  1.413089,  0.000000 )     0.96215517
  WF centre and spread    3  ( -0.000000,  1.413089,  3.325396 )     0.96215495
  WF centre and spread    4  (  1.223770,  0.706544,  3.325396 )     0.96732010
  WF centre and spread    5  (  0.000002,  0.706665,  0.000000 )     0.57320756
  WF centre and spread    6  ( -0.611784,  1.766303,  0.000000 )     0.57320682
  WF centre and spread    7  (  0.611782,  1.766299,  0.000000 )     0.57320682
  WF centre and spread    8  ( -0.611782,  1.059876,  3.325396 )     0.57320733
  WF centre and spread    9  (  0.611782,  1.059876,  3.325396 )     0.57320733
  WF centre and spread   10  ( -0.000000,  2.119514,  3.325396 )     0.57320587
  Sum of centres and spreads (  1.223770, 12.011255, 16.626979 )     7.29819161
 
      0     0.730E+01     0.0000000000        7.2981976392      14.55  <-- CONV
        O_D=      0.0232438 O_OD=      1.3875345 O_TOT=      7.2981976 <-- SPRD
 ------------------------------------------------------------------------------
 Cycle:      1
  WF centre and spread    1  ( -0.000000,  0.000000,  0.000000 )     0.96712434
  WF centre and spread    2  ( -0.000000,  1.413089,  0.000000 )     0.96144816
  WF centre and spread    3  ( -0.000000,  1.413089,  3.325396 )     0.96144793
  WF centre and spread    4  (  1.223770,  0.706544,  3.325396 )     0.96712479
  WF centre and spread    5  (  0.000002,  0.706665,  0.000000 )     0.57254218
  WF centre and spread    6  ( -0.611783,  1.766302,  0.000000 )     0.57254144
  WF centre and spread    7  (  0.611781,  1.766299,  0.000000 )     0.57254144
  WF centre and spread    8  ( -0.611781,  1.059877,  3.325396 )     0.57254195
  WF centre and spread    9  (  0.611781,  1.059877,  3.325396 )     0.57254195
  WF centre and spread   10  ( -0.000000,  2.119514,  3.325396 )     0.57254050
  Sum of centres and spreads (  1.223770, 12.011255, 16.626979 )     7.29239468
 
      1    -0.580E-02     0.0321980973        7.2924007117      14.60  <-- CONV
        O_D=      0.0227651 O_OD=      1.3822163 O_TOT=      7.2924007 <-- SPRD
 Delta: O_D= -0.4787584E-03 O_OD= -0.5318169E-02 O_TOT= -0.5796927E-02 <-- DLTA
 ------------------------------------------------------------------------------
 Cycle:      2
  WF centre and spread    1  ( -0.000000,  0.000000,  0.000000 )     0.96704595
  WF centre and spread    2  ( -0.000000,  1.413089,  0.000000 )     0.96096728
  WF centre and spread    3  ( -0.000000,  1.413089,  3.325396 )     0.96096706
  WF centre and spread    4  (  1.223770,  0.706544,  3.325396 )     0.96704640
  WF centre and spread    5  (  0.000002,  0.706666,  0.000000 )     0.57216143
  WF centre and spread    6  ( -0.611782,  1.766302,  0.000000 )     0.57216068
  WF centre and spread    7  (  0.611781,  1.766299,  0.000000 )     0.57216069
  WF centre and spread    8  ( -0.611781,  1.059877,  3.325396 )     0.57216120
  WF centre and spread    9  (  0.611781,  1.059877,  3.325396 )     0.57216119
  WF centre and spread   10  ( -0.000000,  2.119513,  3.325396 )     0.57215974
  Sum of centres and spreads (  1.223770, 12.011255, 16.626979 )     7.28899163
 
      2    -0.340E-02     0.0383833449        7.2889976674      14.65  <-- CONV
        O_D=      0.0224992 O_OD=      1.3790792 O_TOT=      7.2889977 <-- SPRD
 Delta: O_D= -0.2659086E-03 O_OD= -0.3137136E-02 O_TOT= -0.3403044E-02 <-- DLTA
 ------------------------------------------------------------------------------
 Cycle:      3
  WF centre and spread    1  ( -0.000000,  0.000000,  0.000000 )     0.96703663
  WF centre and spread    2  ( -0.000000,  1.413089,  0.000000 )     0.96084870
  WF centre and spread    3  ( -0.000000,  1.413089,  3.325396 )     0.96084848
  WF centre and spread    4  (  1.223770,  0.706544,  3.325396 )     0.96703708
  WF centre and spread    5  (  0.000002,  0.706667,  0.000000 )     0.57203439
  WF centre and spread    6  ( -0.611781,  1.766301,  0.000000 )     0.57203364
  WF centre and spread    7  (  0.611780,  1.766298,  0.000000 )     0.57203364
  WF centre and spread    8  ( -0.611780,  1.059877,  3.325396 )     0.57203416
  WF centre and spread    9  (  0.611780,  1.059877,  3.325396 )     0.57203415
  WF centre and spread   10  ( -0.000000,  2.119512,  3.325396 )     0.57203270
  Sum of centres and spreads (  1.223770, 12.011255, 16.626979 )     7.28797357
 
      3    -0.102E-02     0.0210041579        7.2879796066      14.69  <-- CONV
        O_D=      0.0224229 O_OD=      1.3781374 O_TOT=      7.2879796 <-- SPRD
 Delta: O_D= -0.7629958E-04 O_OD= -0.9417612E-03 O_TOT= -0.1018061E-02 <-- DLTA
 ------------------------------------------------------------------------------
 Cycle:      4
  WF centre and spread    1  ( -0.000000,  0.000000,  0.000000 )     0.96702165
  WF centre and spread    2  ( -0.000000,  1.413089,  0.000000 )     0.96082551
  WF centre and spread    3  ( -0.000000,  1.413089,  3.325396 )     0.96082529
  WF centre and spread    4  (  1.223770,  0.706544,  3.325396 )     0.96702209
  WF centre and spread    5  (  0.000002,  0.706668,  0.000000 )     0.57197469
  WF centre and spread    6  ( -0.611781,  1.766301,  0.000000 )     0.57197393
  WF centre and spread    7  (  0.611779,  1.766298,  0.000000 )     0.57197394
  WF centre and spread    8  ( -0.611779,  1.059878,  3.325396 )     0.57197445
  WF centre and spread    9  (  0.611779,  1.059878,  3.325396 )     0.57197445
  WF centre and spread   10  ( -0.000000,  2.119511,  3.325396 )     0.57197299
  Sum of centres and spreads (  1.223770, 12.011255, 16.626979 )     7.28753898
 
      4    -0.435E-03     0.0134292008        7.2875450112      14.74  <-- CONV
        O_D=      0.0223952 O_OD=      1.3777305 O_TOT=      7.2875450 <-- SPRD
 Delta: O_D= -0.2767634E-04 O_OD= -0.4069191E-03 O_TOT= -0.4345955E-03 <-- DLTA
 ------------------------------------------------------------------------------
 Cycle:      5
  WF centre and spread    1  ( -0.000000,  0.000000,  0.000000 )     0.96699514
  WF centre and spread    2  ( -0.000000,  1.413089,  0.000000 )     0.96083391
  WF centre and spread    3  ( -0.000000,  1.413089,  3.325396 )     0.96083369
  WF centre and spread    4  (  1.223770,  0.706544,  3.325396 )     0.96699559
  WF centre and spread    5  (  0.000002,  0.706668,  0.000000 )     0.57194771
  WF centre and spread    6  ( -0.611781,  1.766301,  0.000000 )     0.57194696
  WF centre and spread    7  (  0.611779,  1.766298,  0.000000 )     0.57194696
  WF centre and spread    8  ( -0.611779,  1.059878,  3.325396 )     0.57194748
  WF centre and spread    9  (  0.611779,  1.059878,  3.325396 )     0.57194747
  WF centre and spread   10  ( -0.000000,  2.119511,  3.325396 )     0.57194602
  Sum of centres and spreads (  1.223770, 12.011255, 16.626979 )     7.28734093
 
      5    -0.198E-03     0.0088963036        7.2873469681      14.78  <-- CONV
        O_D=      0.0223843 O_OD=      1.3775433 O_TOT=      7.2873470 <-- SPRD
 Delta: O_D= -0.1089189E-04 O_OD= -0.1871511E-03 O_TOT= -0.1980430E-03 <-- DLTA
 ------------------------------------------------------------------------------
 Cycle:      6
  WF centre and spread    1  ( -0.000000,  0.000000,  0.000000 )     0.96696451
  WF centre and spread    2  ( -0.000000,  1.413089,  0.000000 )     0.96085267
  WF centre and spread    3  ( -0.000000,  1.413089,  3.325396 )     0.96085245
  WF centre and spread    4  (  1.223770,  0.706544,  3.325396 )     0.96696496
  WF centre and spread    5  (  0.000001,  0.706668, -0.000000 )     0.57193649
  WF centre and spread    6  ( -0.611780,  1.766301, -0.000000 )     0.57193574
  WF centre and spread    7  (  0.611779,  1.766298, -0.000000 )     0.57193574
  WF centre and spread    8  ( -0.611779,  1.059878,  3.325396 )     0.57193626
  WF centre and spread    9  (  0.611779,  1.059878,  3.325396 )     0.57193625
  WF centre and spread   10  ( -0.000000,  2.119511,  3.325396 )     0.57193480
  Sum of centres and spreads (  1.223770, 12.011255, 16.626979 )     7.28724988
 
      6    -0.911E-04     0.0058152074        7.2872559145      14.83  <-- CONV
        O_D=      0.0223729 O_OD=      1.3774637 O_TOT=      7.2872559 <-- SPRD
 Delta: O_D= -0.1136644E-04 O_OD= -0.7968723E-04 O_TOT= -0.9105368E-04 <-- DLTA
 ------------------------------------------------------------------------------
 Cycle:      7
  WF centre and spread    1  ( -0.000000,  0.000000,  0.000000 )     0.96695880
  WF centre and spread    2  ( -0.000000,  1.413089,  0.000000 )     0.96085333
  WF centre and spread    3  ( -0.000000,  1.413089,  3.325396 )     0.96085311
  WF centre and spread    4  (  1.223770,  0.706544,  3.325396 )     0.96695925
  WF centre and spread    5  (  0.000001,  0.706668, -0.000000 )     0.57193325
  WF centre and spread    6  ( -0.611780,  1.766301, -0.000000 )     0.57193250
  WF centre and spread    7  (  0.611779,  1.766298, -0.000000 )     0.57193250
  WF centre and spread    8  ( -0.611779,  1.059878,  3.325396 )     0.57193302
  WF centre and spread    9  (  0.611779,  1.059878,  3.325396 )     0.57193301
  WF centre and spread   10  ( -0.000000,  2.119511,  3.325396 )     0.57193156
  Sum of centres and spreads (  1.223770, 12.011255, 16.626979 )     7.28722033
 
      7    -0.295E-04     0.0042923939        7.2872263650      14.88  <-- CONV
        O_D=      0.0223688 O_OD=      1.3774382 O_TOT=      7.2872264 <-- SPRD
 Delta: O_D= -0.4087567E-05 O_OD= -0.2546189E-04 O_TOT= -0.2954946E-04 <-- DLTA
 ------------------------------------------------------------------------------
 Cycle:      8
  WF centre and spread    1  ( -0.000000,  0.000000,  0.000000 )     0.96695175
  WF centre and spread    2  ( -0.000000,  1.413089,  0.000000 )     0.96085869
  WF centre and spread    3  ( -0.000000,  1.413089,  3.325396 )     0.96085847
  WF centre and spread    4  (  1.223770,  0.706544,  3.325396 )     0.96695220
  WF centre and spread    5  (  0.000001,  0.706668, -0.000000 )     0.57193084
  WF centre and spread    6  ( -0.611781,  1.766301, -0.000000 )     0.57193009
  WF centre and spread    7  (  0.611779,  1.766298, -0.000000 )     0.57193010
  WF centre and spread    8  ( -0.611779,  1.059878,  3.325396 )     0.57193061
  WF centre and spread    9  (  0.611779,  1.059878,  3.325396 )     0.57193061
  WF centre and spread   10  ( -0.000000,  2.119511,  3.325396 )     0.57192915
  Sum of centres and spreads (  1.223770, 12.011255, 16.626979 )     7.28720251
 
      8    -0.178E-04     0.0025095658        7.2872085432      14.92  <-- CONV
        O_D=      0.0223665 O_OD=      1.3774227 O_TOT=      7.2872085 <-- SPRD
 Delta: O_D= -0.2342710E-05 O_OD= -0.1547909E-04 O_TOT= -0.1782180E-04 <-- DLTA
 ------------------------------------------------------------------------------
 Cycle:      9
  WF centre and spread    1  ( -0.000000,  0.000000,  0.000000 )     0.96694798
  WF centre and spread    2  ( -0.000000,  1.413089,  0.000000 )     0.96086301
  WF centre and spread    3  ( -0.000000,  1.413089,  3.325396 )     0.96086279
  WF centre and spread    4  (  1.223770,  0.706544,  3.325396 )     0.96694843
  WF centre and spread    5  (  0.000001,  0.706667, -0.000000 )     0.57192916
  WF centre and spread    6  ( -0.611781,  1.766301, -0.000000 )     0.57192841
  WF centre and spread    7  (  0.611779,  1.766298, -0.000000 )     0.57192841
  WF centre and spread    8  ( -0.611779,  1.059878,  3.325396 )     0.57192892
  WF centre and spread    9  (  0.611779,  1.059878,  3.325396 )     0.57192892
  WF centre and spread   10  ( -0.000000,  2.119511,  3.325396 )     0.57192747
  Sum of centres and spreads (  1.223770, 12.011255, 16.626979 )     7.28719349
 
      9    -0.902E-05     0.0019000150        7.2871995242      14.97  <-- CONV
        O_D=      0.0223657 O_OD=      1.3774145 O_TOT=      7.2871995 <-- SPRD
 Delta: O_D= -0.8247498E-06 O_OD= -0.8194219E-05 O_TOT= -0.9018969E-05 <-- DLTA
 ------------------------------------------------------------------------------
 Cycle:     10
  WF centre and spread    1  ( -0.000000,  0.000000,  0.000000 )     0.96694775
  WF centre and spread    2  ( -0.000000,  1.413089,  0.000000 )     0.96086477
  WF centre and spread    3  ( -0.000000,  1.413089,  3.325396 )     0.96086455
  WF centre and spread    4  (  1.223770,  0.706544,  3.325396 )     0.96694820
  WF centre and spread    5  (  0.000001,  0.706667, -0.000000 )     0.57192794
  WF centre and spread    6  ( -0.611781,  1.766301, -0.000000 )     0.57192719
  WF centre and spread    7  (  0.611779,  1.766299, -0.000000 )     0.57192719
  WF centre and spread    8  ( -0.611779,  1.059878,  3.325396 )     0.57192771
  WF centre and spread    9  (  0.611779,  1.059878,  3.325396 )     0.57192770
  WF centre and spread   10  ( -0.000000,  2.119511,  3.325396 )     0.57192625
  Sum of centres and spreads (  1.223770, 12.011255, 16.626979 )     7.28718925
 
     10    -0.424E-05     0.0012901232        7.2871952880      15.01  <-- CONV
        O_D=      0.0223654 O_OD=      1.3774105 O_TOT=      7.2871953 <-- SPRD
 Delta: O_D= -0.2605532E-06 O_OD= -0.3975701E-05 O_TOT= -0.4236255E-05 <-- DLTA
 ------------------------------------------------------------------------------
 Cycle:     11
  WF centre and spread    1  ( -0.000000,  0.000000,  0.000000 )     0.96695010
  WF centre and spread    2  ( -0.000000,  1.413089,  0.000000 )     0.96086392
  WF centre and spread    3  ( -0.000000,  1.413089,  3.325396 )     0.96086370
  WF centre and spread    4  (  1.223770,  0.706544,  3.325396 )     0.96695055
  WF centre and spread    5  (  0.000001,  0.706667, -0.000000 )     0.57192711
  WF centre and spread    6  ( -0.611781,  1.766301, -0.000000 )     0.57192636
  WF centre and spread    7  (  0.611780,  1.766299, -0.000000 )     0.57192637
  WF centre and spread    8  ( -0.611780,  1.059878,  3.325396 )     0.57192688
  WF centre and spread    9  (  0.611780,  1.059878,  3.325396 )     0.57192687
  WF centre and spread   10  ( -0.000000,  2.119511,  3.325396 )     0.57192542
  Sum of centres and spreads (  1.223770, 12.011255, 16.626979 )     7.28718729
 
     11    -0.197E-05     0.0008812539        7.2871933226      15.06  <-- CONV
        O_D=      0.0223653 O_OD=      1.3774087 O_TOT=      7.2871933 <-- SPRD
 Delta: O_D= -0.1155812E-06 O_OD= -0.1849774E-05 O_TOT= -0.1965356E-05 <-- DLTA
 ------------------------------------------------------------------------------
 Cycle:     12
  WF centre and spread    1  ( -0.000000,  0.000000,  0.000000 )     0.96695306
  WF centre and spread    2  ( -0.000000,  1.413089,  0.000000 )     0.96086158
  WF centre and spread    3  ( -0.000000,  1.413089,  3.325396 )     0.96086136
  WF centre and spread    4  (  1.223770,  0.706544,  3.325396 )     0.96695351
  WF centre and spread    5  (  0.000001,  0.706667, -0.000000 )     0.57192680
  WF centre and spread    6  ( -0.611781,  1.766301, -0.000000 )     0.57192605
  WF centre and spread    7  (  0.611780,  1.766299, -0.000000 )     0.57192605
  WF centre and spread    8  ( -0.611780,  1.059878,  3.325396 )     0.57192657
  WF centre and spread    9  (  0.611780,  1.059878,  3.325396 )     0.57192656
  WF centre and spread   10  ( -0.000000,  2.119511,  3.325396 )     0.57192511
  Sum of centres and spreads (  1.223770, 12.011255, 16.626979 )     7.28718665
 
     12    -0.634E-06     0.0005548494        7.2871926882      15.10  <-- CONV
        O_D=      0.0223653 O_OD=      1.3774081 O_TOT=      7.2871927 <-- SPRD
 Delta: O_D=  0.4209460E-08 O_OD= -0.6386927E-06 O_TOT= -0.6344832E-06 <-- DLTA
 ------------------------------------------------------------------------------
 Cycle:     13
  WF centre and spread    1  ( -0.000000,  0.000000,  0.000000 )     0.96695562
  WF centre and spread    2  ( -0.000000,  1.413089,  0.000000 )     0.96085887
  WF centre and spread    3  ( -0.000000,  1.413089,  3.325396 )     0.96085865
  WF centre and spread    4  (  1.223770,  0.706544,  3.325396 )     0.96695606
  WF centre and spread    5  (  0.000001,  0.706667, -0.000000 )     0.57192682
  WF centre and spread    6  ( -0.611781,  1.766301, -0.000000 )     0.57192607
  WF centre and spread    7  (  0.611780,  1.766299, -0.000000 )     0.57192608
  WF centre and spread    8  ( -0.611780,  1.059878,  3.325396 )     0.57192659
  WF centre and spread    9  (  0.611780,  1.059878,  3.325396 )     0.57192658
  WF centre and spread   10  ( -0.000000,  2.119511,  3.325396 )     0.57192513
  Sum of centres and spreads (  1.223770, 12.011255, 16.626979 )     7.28718647
 
     13    -0.181E-06     0.0002760374        7.2871925073      15.15  <-- CONV
        O_D=      0.0223653 O_OD=      1.3774079 O_TOT=      7.2871925 <-- SPRD
 Delta: O_D= -0.3196305E-07 O_OD= -0.1488786E-06 O_TOT= -0.1808417E-06 <-- DLTA
 ------------------------------------------------------------------------------
 Cycle:     14
  WF centre and spread    1  ( -0.000000,  0.000000,  0.000000 )     0.96696128
  WF centre and spread    2  ( -0.000000,  1.413089,  0.000000 )     0.96085292
  WF centre and spread    3  ( -0.000000,  1.413089,  3.325396 )     0.96085270
  WF centre and spread    4  (  1.223770,  0.706544,  3.325396 )     0.96696172
  WF centre and spread    5  (  0.000001,  0.706667, -0.000000 )     0.57192689
  WF centre and spread    6  ( -0.611781,  1.766301, -0.000000 )     0.57192614
  WF centre and spread    7  (  0.611780,  1.766299, -0.000000 )     0.57192614
  WF centre and spread    8  ( -0.611780,  1.059878,  3.325396 )     0.57192665
  WF centre and spread    9  (  0.611780,  1.059878,  3.325396 )     0.57192665
  WF centre and spread   10  ( -0.000000,  2.119511,  3.325396 )     0.57192519
  Sum of centres and spreads (  1.223770, 12.011255, 16.626979 )     7.28718627
 
     14    -0.199E-06     0.0002538014        7.2871923085      15.20  <-- CONV
        O_D=      0.0223652 O_OD=      1.3774077 O_TOT=      7.2871923 <-- SPRD
 Delta: O_D= -0.1969344E-07 O_OD= -0.1791542E-06 O_TOT= -0.1988477E-06 <-- DLTA
 ------------------------------------------------------------------------------
 Cycle:     15
  WF centre and spread    1  ( -0.000000,  0.000000,  0.000000 )     0.96696623
  WF centre and spread    2  ( -0.000000,  1.413089,  0.000000 )     0.96084780
  WF centre and spread    3  ( -0.000000,  1.413089,  3.325396 )     0.96084758
  WF centre and spread    4  (  1.223770,  0.706544,  3.325396 )     0.96696667
  WF centre and spread    5  (  0.000001,  0.706667, -0.000000 )     0.57192693
  WF centre and spread    6  ( -0.611781,  1.766301, -0.000000 )     0.57192618
  WF centre and spread    7  (  0.611780,  1.766299, -0.000000 )     0.57192618
  WF centre and spread    8  ( -0.611780,  1.059878,  3.325396 )     0.57192669
  WF centre and spread    9  (  0.611780,  1.059878,  3.325396 )     0.57192669
  WF centre and spread   10  ( -0.000000,  2.119511,  3.325396 )     0.57192523
  Sum of centres and spreads (  1.223770, 12.011255, 16.626979 )     7.28718617
 
     15    -0.101E-06     0.0001921768        7.2871922073      15.24  <-- CONV
        O_D=      0.0223652 O_OD=      1.3774076 O_TOT=      7.2871922 <-- SPRD
 Delta: O_D= -0.1164925E-07 O_OD= -0.8953337E-07 O_TOT= -0.1011826E-06 <-- DLTA
 ------------------------------------------------------------------------------
 Cycle:     16
  WF centre and spread    1  ( -0.000000,  0.000000,  0.000000 )     0.96697265
  WF centre and spread    2  ( -0.000000,  1.413089,  0.000000 )     0.96084127
  WF centre and spread    3  ( -0.000000,  1.413089,  3.325396 )     0.96084105
  WF centre and spread    4  (  1.223770,  0.706544,  3.325396 )     0.96697310
  WF centre and spread    5  (  0.000001,  0.706667, -0.000000 )     0.57192696
  WF centre and spread    6  ( -0.611781,  1.766301, -0.000000 )     0.57192621
  WF centre and spread    7  (  0.611780,  1.766299, -0.000000 )     0.57192621
  WF centre and spread    8  ( -0.611780,  1.059878,  3.325396 )     0.57192672
  WF centre and spread    9  (  0.611780,  1.059878,  3.325396 )     0.57192672
  WF centre and spread   10  ( -0.000000,  2.119511,  3.325396 )     0.57192527
  Sum of centres and spreads (  1.223770, 12.011255, 16.626979 )     7.28718615
 
     16    -0.219E-07     0.0001285462        7.2871921854      15.29  <-- CONV
        O_D=      0.0223652 O_OD=      1.3774076 O_TOT=      7.2871922 <-- SPRD
 Delta: O_D= -0.2778347E-08 O_OD= -0.1914623E-07 O_TOT= -0.2192457E-07 <-- DLTA
 ------------------------------------------------------------------------------
 Cycle:     17
  WF centre and spread    1  ( -0.000000,  0.000000,  0.000000 )     0.96697546
  WF centre and spread    2  ( -0.000000,  1.413089,  0.000000 )     0.96083843
  WF centre and spread    3  ( -0.000000,  1.413089,  3.325396 )     0.96083821
  WF centre and spread    4  (  1.223770,  0.706544,  3.325396 )     0.96697591
  WF centre and spread    5  (  0.000001,  0.706667, -0.000000 )     0.57192697
  WF centre and spread    6  ( -0.611780,  1.766301, -0.000000 )     0.57192622
  WF centre and spread    7  (  0.611780,  1.766299, -0.000000 )     0.57192622
  WF centre and spread    8  ( -0.611780,  1.059878,  3.325396 )     0.57192673
  WF centre and spread    9  (  0.611780,  1.059878,  3.325396 )     0.57192673
  WF centre and spread   10  ( -0.000000,  2.119511,  3.325396 )     0.57192527
  Sum of centres and spreads (  1.223770, 12.011255, 16.626979 )     7.28718614
 
     17    -0.834E-08     0.0001805055        7.2871921770      15.33  <-- CONV
        O_D=      0.0223652 O_OD=      1.3774076 O_TOT=      7.2871922 <-- SPRD
 Delta: O_D= -0.1011348E-08 O_OD= -0.7332245E-08 O_TOT= -0.8343594E-08 <-- DLTA
 ------------------------------------------------------------------------------
 Cycle:     18
  WF centre and spread    1  ( -0.000000,  0.000000,  0.000000 )     0.96697822
  WF centre and spread    2  ( -0.000000,  1.413089,  0.000000 )     0.96083565
  WF centre and spread    3  ( -0.000000,  1.413089,  3.325396 )     0.96083543
  WF centre and spread    4  (  1.223770,  0.706544,  3.325396 )     0.96697867
  WF centre and spread    5  (  0.000001,  0.706667, -0.000000 )     0.57192697
  WF centre and spread    6  ( -0.611780,  1.766301, -0.000000 )     0.57192622
  WF centre and spread    7  (  0.611780,  1.766299, -0.000000 )     0.57192622
  WF centre and spread    8  ( -0.611780,  1.059878,  3.325396 )     0.57192674
  WF centre and spread    9  (  0.611780,  1.059878,  3.325396 )     0.57192673
  WF centre and spread   10  ( -0.000000,  2.119511,  3.325396 )     0.57192528
  Sum of centres and spreads (  1.223770, 12.011255, 16.626979 )     7.28718612
 
     18    -0.224E-07     0.0001599942        7.2871921546      15.38  <-- CONV
        O_D=      0.0223652 O_OD=      1.3774076 O_TOT=      7.2871922 <-- SPRD
 Delta: O_D= -0.3236386E-08 O_OD= -0.1921125E-07 O_TOT= -0.2244763E-07 <-- DLTA
 ------------------------------------------------------------------------------
 Cycle:     19
  WF centre and spread    1  ( -0.000000,  0.000000,  0.000000 )     0.96697922
  WF centre and spread    2  ( -0.000000,  1.413089,  0.000000 )     0.96083468
  WF centre and spread    3  ( -0.000000,  1.413089,  3.325396 )     0.96083446
  WF centre and spread    4  (  1.223770,  0.706544,  3.325396 )     0.96697966
  WF centre and spread    5  (  0.000001,  0.706667, -0.000000 )     0.57192696
  WF centre and spread    6  ( -0.611780,  1.766301, -0.000000 )     0.57192621
  WF centre and spread    7  (  0.611780,  1.766299, -0.000000 )     0.57192621
  WF centre and spread    8  ( -0.611780,  1.059878,  3.325396 )     0.57192672
  WF centre and spread    9  (  0.611780,  1.059878,  3.325396 )     0.57192672
  WF centre and spread   10  ( -0.000000,  2.119511,  3.325396 )     0.57192527
  Sum of centres and spreads (  1.223770, 12.011255, 16.626979 )     7.28718610
 
     19    -0.199E-07     0.0000903534        7.2871921346      15.42  <-- CONV
        O_D=      0.0223652 O_OD=      1.3774076 O_TOT=      7.2871921 <-- SPRD
 Delta: O_D= -0.3394554E-08 O_OD= -0.1654608E-07 O_TOT= -0.1994063E-07 <-- DLTA
 ------------------------------------------------------------------------------
 Cycle:     20
  WF centre and spread    1  ( -0.000000,  0.000000,  0.000000 )     0.96697922
  WF centre and spread    2  ( -0.000000,  1.413089,  0.000000 )     0.96083467
  WF centre and spread    3  ( -0.000000,  1.413089,  3.325396 )     0.96083445
  WF centre and spread    4  (  1.223770,  0.706544,  3.325396 )     0.96697967
  WF centre and spread    5  (  0.000001,  0.706667, -0.000000 )     0.57192696
  WF centre and spread    6  ( -0.611780,  1.766301, -0.000000 )     0.57192621
  WF centre and spread    7  (  0.611780,  1.766299, -0.000000 )     0.57192621
  WF centre and spread    8  ( -0.611780,  1.059878,  3.325396 )     0.57192672
  WF centre and spread    9  (  0.611780,  1.059878,  3.325396 )     0.57192672
  WF centre and spread   10  ( -0.000000,  2.119511,  3.325396 )     0.57192527
  Sum of centres and spreads (  1.223770, 12.011255, 16.626979 )     7.28718610
 
[...]
  WF centre and spread    4  (  1.223770,  0.706544,  3.325396 )     0.96701647
  WF centre and spread    5  (  0.000000,  0.706666, -0.000000 )     0.57192691
  WF centre and spread    6  ( -0.611780,  1.766300, -0.000000 )     0.57192616
  WF centre and spread    7  (  0.611780,  1.766300, -0.000000 )     0.57192617
  WF centre and spread    8  ( -0.611780,  1.059878,  3.325396 )     0.57192668
  WF centre and spread    9  (  0.611780,  1.059878,  3.325396 )     0.57192667
  WF centre and spread   10  ( -0.000000,  2.119511,  3.325396 )     0.57192522
  Sum of centres and spreads (  1.223770, 12.011255, 16.626979 )     7.28718604
 
    187    -0.564E-12     0.0000054414        7.2871920774      21.88  <-- CONV
        O_D=      0.0223652 O_OD=      1.3774075 O_TOT=      7.2871921 <-- SPRD
 Delta: O_D= -0.1007978E-12 O_OD= -0.4636291E-12 O_TOT= -0.5639933E-12 <-- DLTA
 ------------------------------------------------------------------------------
 Cycle:    188
  WF centre and spread    1  ( -0.000000,  0.000000,  0.000000 )     0.96701602
  WF centre and spread    2  ( -0.000000,  1.413089,  0.000000 )     0.96079798
  WF centre and spread    3  ( -0.000000,  1.413089,  3.325396 )     0.96079775
  WF centre and spread    4  (  1.223770,  0.706544,  3.325396 )     0.96701647
  WF centre and spread    5  (  0.000000,  0.706666, -0.000000 )     0.57192691
  WF centre and spread    6  ( -0.611780,  1.766300, -0.000000 )     0.57192616
  WF centre and spread    7  (  0.611780,  1.766300, -0.000000 )     0.57192617
  WF centre and spread    8  ( -0.611780,  1.059878,  3.325396 )     0.57192668
  WF centre and spread    9  (  0.611780,  1.059878,  3.325396 )     0.57192667
  WF centre and spread   10  ( -0.000000,  2.119511,  3.325396 )     0.57192522
  Sum of centres and spreads (  1.223770, 12.011255, 16.626979 )     7.28718604
 
    188    -0.488E-12     0.0000054408        7.2871920774      21.90  <-- CONV
        O_D=      0.0223652 O_OD=      1.3774075 O_TOT=      7.2871921 <-- SPRD
 Delta: O_D= -0.8281223E-13 O_OD= -0.4050094E-12 O_TOT= -0.4876100E-12 <-- DLTA
 ------------------------------------------------------------------------------
 Cycle:    189
  WF centre and spread    1  ( -0.000000,  0.000000,  0.000000 )     0.96701615
  WF centre and spread    2  ( -0.000000,  1.413089,  0.000000 )     0.96079785
  WF centre and spread    3  ( -0.000000,  1.413089,  3.325396 )     0.96079763
  WF centre and spread    4  (  1.223770,  0.706544,  3.325396 )     0.96701660
  WF centre and spread    5  (  0.000000,  0.706666, -0.000000 )     0.57192691
  WF centre and spread    6  ( -0.611780,  1.766300, -0.000000 )     0.57192616
  WF centre and spread    7  (  0.611780,  1.766300, -0.000000 )     0.57192617
  WF centre and spread    8  ( -0.611780,  1.059878,  3.325396 )     0.57192668
  WF centre and spread    9  (  0.611780,  1.059878,  3.325396 )     0.57192667
  WF centre and spread   10  ( -0.000000,  2.119511,  3.325396 )     0.57192522
  Sum of centres and spreads (  1.223770, 12.011255, 16.626979 )     7.28718604
 
    189    -0.549E-10     0.0000054402        7.2871920773      21.95  <-- CONV
        O_D=      0.0223652 O_OD=      1.3774075 O_TOT=      7.2871921 <-- SPRD
 Delta: O_D= -0.9465116E-11 O_OD= -0.4543654E-10 O_TOT= -0.5490186E-10 <-- DLTA
 ------------------------------------------------------------------------------
 Cycle:    190
  WF centre and spread    1  ( -0.000000,  0.000000,  0.000000 )     0.96701617
  WF centre and spread    2  ( -0.000000,  1.413089,  0.000000 )     0.96079783
  WF centre and spread    3  ( -0.000000,  1.413089,  3.325396 )     0.96079761
  WF centre and spread    4  (  1.223770,  0.706544,  3.325396 )     0.96701661
  WF centre and spread    5  (  0.000000,  0.706666, -0.000000 )     0.57192691
  WF centre and spread    6  ( -0.611780,  1.766300, -0.000000 )     0.57192616
  WF centre and spread    7  (  0.611780,  1.766300, -0.000000 )     0.57192617
  WF centre and spread    8  ( -0.611780,  1.059878,  3.325396 )     0.57192668
  WF centre and spread    9  (  0.611780,  1.059878,  3.325396 )     0.57192667
  WF centre and spread   10  ( -0.000000,  2.119511,  3.325396 )     0.57192522
  Sum of centres and spreads (  1.223770, 12.011255, 16.626979 )     7.28718604
 
    190    -0.646E-11     0.0000053788        7.2871920773      21.99  <-- CONV
        O_D=      0.0223652 O_OD=      1.3774075 O_TOT=      7.2871921 <-- SPRD
 Delta: O_D= -0.1131640E-11 O_OD= -0.5327738E-11 O_TOT= -0.6458833E-11 <-- DLTA
 ------------------------------------------------------------------------------
 Cycle:    191
  WF centre and spread    1  ( -0.000000,  0.000000,  0.000000 )     0.96701617
  WF centre and spread    2  ( -0.000000,  1.413089,  0.000000 )     0.96079783
  WF centre and spread    3  ( -0.000000,  1.413089,  3.325396 )     0.96079761
  WF centre and spread    4  (  1.223770,  0.706544,  3.325396 )     0.96701662
  WF centre and spread    5  (  0.000000,  0.706666, -0.000000 )     0.57192691
  WF centre and spread    6  ( -0.611780,  1.766300, -0.000000 )     0.57192616
  WF centre and spread    7  (  0.611780,  1.766300, -0.000000 )     0.57192617
  WF centre and spread    8  ( -0.611780,  1.059878,  3.325396 )     0.57192668
  WF centre and spread    9  (  0.611780,  1.059878,  3.325396 )     0.57192667
  WF centre and spread   10  ( -0.000000,  2.119511,  3.325396 )     0.57192522
  Sum of centres and spreads (  1.223770, 12.011255, 16.626979 )     7.28718604
 
    191    -0.117E-11     0.0000053714        7.2871920773      22.02  <-- CONV
        O_D=      0.0223652 O_OD=      1.3774075 O_TOT=      7.2871921 <-- SPRD
 Delta: O_D= -0.2030806E-12 O_OD= -0.9672263E-12 O_TOT= -0.1170619E-11 <-- DLTA
 ------------------------------------------------------------------------------
 Cycle:    192
  WF centre and spread    1  ( -0.000000,  0.000000,  0.000000 )     0.96701617
  WF centre and spread    2  ( -0.000000,  1.413089,  0.000000 )     0.96079783
  WF centre and spread    3  ( -0.000000,  1.413089,  3.325396 )     0.96079760
  WF centre and spread    4  (  1.223770,  0.706544,  3.325396 )     0.96701662
  WF centre and spread    5  (  0.000000,  0.706666, -0.000000 )     0.57192691
  WF centre and spread    6  ( -0.611780,  1.766300, -0.000000 )     0.57192616
  WF centre and spread    7  (  0.611780,  1.766300, -0.000000 )     0.57192617
  WF centre and spread    8  ( -0.611780,  1.059878,  3.325396 )     0.57192668
  WF centre and spread    9  (  0.611780,  1.059878,  3.325396 )     0.57192667
  WF centre and spread   10  ( -0.000000,  2.119511,  3.325396 )     0.57192522
  Sum of centres and spreads (  1.223770, 12.011255, 16.626979 )     7.28718604
 
    192    -0.142E-11     0.0000053701        7.2871920773      22.05  <-- CONV
        O_D=      0.0223652 O_OD=      1.3774075 O_TOT=      7.2871921 <-- SPRD
 Delta: O_D= -0.2442664E-12 O_OD= -0.1179723E-11 O_TOT= -0.1424638E-11 <-- DLTA
 ------------------------------------------------------------------------------
 Cycle:    193
  WF centre and spread    1  ( -0.000000,  0.000000,  0.000000 )     0.96701620
  WF centre and spread    2  ( -0.000000,  1.413089,  0.000000 )     0.96079780
  WF centre and spread    3  ( -0.000000,  1.413089,  3.325396 )     0.96079758
  WF centre and spread    4  (  1.223770,  0.706544,  3.325396 )     0.96701665
  WF centre and spread    5  (  0.000000,  0.706666, -0.000000 )     0.57192691
  WF centre and spread    6  ( -0.611780,  1.766300, -0.000000 )     0.57192616
  WF centre and spread    7  (  0.611780,  1.766300, -0.000000 )     0.57192617
  WF centre and spread    8  ( -0.611780,  1.059878,  3.325396 )     0.57192668
  WF centre and spread    9  (  0.611780,  1.059878,  3.325396 )     0.57192667
  WF centre and spread   10  ( -0.000000,  2.119511,  3.325396 )     0.57192522
  Sum of centres and spreads (  1.223770, 12.011255, 16.626979 )     7.28718604
 
    193    -0.116E-10     0.0000053685        7.2871920773      22.09  <-- CONV
        O_D=      0.0223652 O_OD=      1.3774075 O_TOT=      7.2871921 <-- SPRD
 Delta: O_D= -0.2012113E-11 O_OD= -0.9577006E-11 O_TOT= -0.1158806E-10 <-- DLTA
 ------------------------------------------------------------------------------
 Cycle:    194
  WF centre and spread    1  ( -0.000000,  0.000000,  0.000000 )     0.96701621
  WF centre and spread    2  ( -0.000000,  1.413089,  0.000000 )     0.96079779
  WF centre and spread    3  ( -0.000000,  1.413089,  3.325396 )     0.96079757
  WF centre and spread    4  (  1.223770,  0.706544,  3.325396 )     0.96701665
  WF centre and spread    5  (  0.000000,  0.706666, -0.000000 )     0.57192691
  WF centre and spread    6  ( -0.611780,  1.766300, -0.000000 )     0.57192616
  WF centre and spread    7  (  0.611780,  1.766300, -0.000000 )     0.57192617
  WF centre and spread    8  ( -0.611780,  1.059878,  3.325396 )     0.57192668
  WF centre and spread    9  (  0.611780,  1.059878,  3.325396 )     0.57192667
  WF centre and spread   10  ( -0.000000,  2.119511,  3.325396 )     0.57192522
  Sum of centres and spreads (  1.223770, 12.011255, 16.626979 )     7.28718604
 
    194    -0.186E-11     0.0000053555        7.2871920773      22.14  <-- CONV
        O_D=      0.0223652 O_OD=      1.3774075 O_TOT=      7.2871921 <-- SPRD
 Delta: O_D= -0.3352145E-12 O_OD= -0.1528777E-11 O_TOT= -0.1864287E-11 <-- DLTA
 ------------------------------------------------------------------------------
 Cycle:    195
  WF centre and spread    1  ( -0.000000,  0.000000,  0.000000 )     0.96701623
  WF centre and spread    2  ( -0.000000,  1.413089,  0.000000 )     0.96079777
  WF centre and spread    3  ( -0.000000,  1.413089,  3.325396 )     0.96079755
  WF centre and spread    4  (  1.223770,  0.706544,  3.325396 )     0.96701667
  WF centre and spread    5  (  0.000000,  0.706666, -0.000000 )     0.57192691
  WF centre and spread    6  ( -0.611780,  1.766300, -0.000000 )     0.57192616
  WF centre and spread    7  (  0.611780,  1.766300, -0.000000 )     0.57192617
  WF centre and spread    8  ( -0.611780,  1.059878,  3.325396 )     0.57192668
  WF centre and spread    9  (  0.611780,  1.059878,  3.325396 )     0.57192667
  WF centre and spread   10  ( -0.000000,  2.119511,  3.325396 )     0.57192522
  Sum of centres and spreads (  1.223770, 12.011255, 16.626979 )     7.28718604
 
    195    -0.924E-11     0.0000053533        7.2871920773      22.18  <-- CONV
        O_D=      0.0223652 O_OD=      1.3774075 O_TOT=      7.2871921 <-- SPRD
 Delta: O_D= -0.1624305E-11 O_OD= -0.7613465E-11 O_TOT= -0.9238832E-11 <-- DLTA
 ------------------------------------------------------------------------------
 Cycle:    196
  WF centre and spread    1  ( -0.000000,  0.000000,  0.000000 )     0.96701623
  WF centre and spread    2  ( -0.000000,  1.413089,  0.000000 )     0.96079777
  WF centre and spread    3  ( -0.000000,  1.413089,  3.325396 )     0.96079755
  WF centre and spread    4  (  1.223770,  0.706544,  3.325396 )     0.96701667
  WF centre and spread    5  (  0.000000,  0.706666, -0.000000 )     0.57192691
  WF centre and spread    6  ( -0.611780,  1.766300, -0.000000 )     0.57192616
  WF centre and spread    7  (  0.611780,  1.766300, -0.000000 )     0.57192617
  WF centre and spread    8  ( -0.611780,  1.059878,  3.325396 )     0.57192668
  WF centre and spread    9  (  0.611780,  1.059878,  3.325396 )     0.57192668
  WF centre and spread   10  ( -0.000000,  2.119511,  3.325396 )     0.57192522
  Sum of centres and spreads (  1.223770, 12.011255, 16.626979 )     7.28718604
 
    196    -0.955E-12     0.0000053428        7.2871920773      22.21  <-- CONV
        O_D=      0.0223652 O_OD=      1.3774075 O_TOT=      7.2871921 <-- SPRD
 Delta: O_D= -0.1628558E-12 O_OD= -0.7926992E-12 O_TOT= -0.9547918E-12 <-- DLTA
 ------------------------------------------------------------------------------
 Cycle:    197
  WF centre and spread    1  ( -0.000000,  0.000000,  0.000000 )     0.96701623
  WF centre and spread    2  ( -0.000000,  1.413089,  0.000000 )     0.96079777
  WF centre and spread    3  ( -0.000000,  1.413089,  3.325396 )     0.96079755
  WF centre and spread    4  (  1.223770,  0.706544,  3.325396 )     0.96701668
  WF centre and spread    5  (  0.000000,  0.706666, -0.000000 )     0.57192691
  WF centre and spread    6  ( -0.611780,  1.766300, -0.000000 )     0.57192616
  WF centre and spread    7  (  0.611780,  1.766300, -0.000000 )     0.57192617
  WF centre and spread    8  ( -0.611780,  1.059878,  3.325396 )     0.57192668
  WF centre and spread    9  (  0.611780,  1.059878,  3.325396 )     0.57192667
  WF centre and spread   10  ( -0.000000,  2.119511,  3.325396 )     0.57192522
  Sum of centres and spreads (  1.223770, 12.011255, 16.626979 )     7.28718604
 
    197    -0.119E-11     0.0000053417        7.2871920773      22.23  <-- CONV
        O_D=      0.0223652 O_OD=      1.3774075 O_TOT=      7.2871921 <-- SPRD
 Delta: O_D= -0.2036704E-12 O_OD= -0.9874324E-12 O_TOT= -0.1191047E-11 <-- DLTA
 ------------------------------------------------------------------------------
 Cycle:    198
  WF centre and spread    1  ( -0.000000,  0.000000,  0.000000 )     0.96701624
  WF centre and spread    2  ( -0.000000,  1.413089,  0.000000 )     0.96079776
  WF centre and spread    3  ( -0.000000,  1.413089,  3.325396 )     0.96079754
  WF centre and spread    4  (  1.223770,  0.706544,  3.325396 )     0.96701668
  WF centre and spread    5  (  0.000000,  0.706666, -0.000000 )     0.57192691
  WF centre and spread    6  ( -0.611780,  1.766300, -0.000000 )     0.57192616
  WF centre and spread    7  (  0.611780,  1.766300, -0.000000 )     0.57192617
  WF centre and spread    8  ( -0.611780,  1.059878,  3.325396 )     0.57192668
  WF centre and spread    9  (  0.611780,  1.059878,  3.325396 )     0.57192668
  WF centre and spread   10  ( -0.000000,  2.119511,  3.325396 )     0.57192522
  Sum of centres and spreads (  1.223770, 12.011255, 16.626979 )     7.28718604
 
    198    -0.141E-11     0.0000053404        7.2871920773      22.26  <-- CONV
        O_D=      0.0223652 O_OD=      1.3774075 O_TOT=      7.2871921 <-- SPRD
 Delta: O_D= -0.2443601E-12 O_OD= -0.1160627E-11 O_TOT= -0.1405098E-11 <-- DLTA
 ------------------------------------------------------------------------------
 Cycle:    199
  WF centre and spread    1  ( -0.000000,  0.000000,  0.000000 )     0.96701625
  WF centre and spread    2  ( -0.000000,  1.413089,  0.000000 )     0.96079775
  WF centre and spread    3  ( -0.000000,  1.413089,  3.325396 )     0.96079753
  WF centre and spread    4  (  1.223770,  0.706544,  3.325396 )     0.96701669
  WF centre and spread    5  (  0.000000,  0.706666, -0.000000 )     0.57192691
  WF centre and spread    6  ( -0.611780,  1.766300, -0.000000 )     0.57192616
  WF centre and spread    7  (  0.611780,  1.766300, -0.000000 )     0.57192617
  WF centre and spread    8  ( -0.611780,  1.059878,  3.325396 )     0.57192668
  WF centre and spread    9  (  0.611780,  1.059878,  3.325396 )     0.57192667
  WF centre and spread   10  ( -0.000000,  2.119511,  3.325396 )     0.57192522
  Sum of centres and spreads (  1.223770, 12.011255, 16.626979 )     7.28718604
 
    199    -0.388E-11     0.0000053388        7.2871920773      22.30  <-- CONV
        O_D=      0.0223652 O_OD=      1.3774075 O_TOT=      7.2871921 <-- SPRD
 Delta: O_D= -0.6868880E-12 O_OD= -0.3189227E-11 O_TOT= -0.3876011E-11 <-- DLTA
 ------------------------------------------------------------------------------
 Cycle:    200
  WF centre and spread    1  ( -0.000000,  0.000000,  0.000000 )     0.96701626
  WF centre and spread    2  ( -0.000000,  1.413089,  0.000000 )     0.96079774
  WF centre and spread    3  ( -0.000000,  1.413089,  3.325396 )     0.96079752
  WF centre and spread    4  (  1.223770,  0.706544,  3.325396 )     0.96701670
  WF centre and spread    5  (  0.000000,  0.706666, -0.000000 )     0.57192691
  WF centre and spread    6  ( -0.611780,  1.766300, -0.000000 )     0.57192616
  WF centre and spread    7  (  0.611780,  1.766300, -0.000000 )     0.57192617
  WF centre and spread    8  ( -0.611780,  1.059878,  3.325396 )     0.57192668
  WF centre and spread    9  (  0.611780,  1.059878,  3.325396 )     0.57192668
  WF centre and spread   10  ( -0.000000,  2.119511,  3.325396 )     0.57192522
  Sum of centres and spreads (  1.223770, 12.011255, 16.626979 )     7.28718604
 
    200    -0.423E-11     0.0000053344        7.2871920773      22.35  <-- CONV
        O_D=      0.0223652 O_OD=      1.3774075 O_TOT=      7.2871921 <-- SPRD
 Delta: O_D= -0.7481342E-12 O_OD= -0.3483880E-11 O_TOT= -0.4232170E-11 <-- DLTA
 ------------------------------------------------------------------------------

 Writing checkpoint file graphite.chk... done

 Final State
  WF centre and spread    1  ( -0.000000,  0.000000,  0.000000 )     0.96701626
  WF centre and spread    2  ( -0.000000,  1.413089,  0.000000 )     0.96079774
  WF centre and spread    3  ( -0.000000,  1.413089,  3.325396 )     0.96079752
  WF centre and spread    4  (  1.223770,  0.706544,  3.325396 )     0.96701670
  WF centre and spread    5  (  0.000000,  0.706666, -0.000000 )     0.57192691
  WF centre and spread    6  ( -0.611780,  1.766300, -0.000000 )     0.57192616
  WF centre and spread    7  (  0.611780,  1.766300, -0.000000 )     0.57192617
  WF centre and spread    8  ( -0.611780,  1.059878,  3.325396 )     0.57192668
  WF centre and spread    9  (  0.611780,  1.059878,  3.325396 )     0.57192668
  WF centre and spread   10  ( -0.000000,  2.119511,  3.325396 )     0.57192522
  Sum of centres and spreads (  1.223770, 12.011255, 16.626979 )     7.28718604
 
         Spreads (Ang^2)       Omega I      =     5.887419339
        ================       Omega D      =     0.022365224
                               Omega OD     =     1.377407514
    Final Spread (Ang^2)       Omega Total  =     7.287192077
 ------------------------------------------------------------------------------

 Wannier centres written to file graphite_centres.xyz
 
 On-site Hamiltonian matrix elements
     n        <0n|H|0n> (eV)
   -------------------------
     1         7.351109
     2         7.342603
     3         7.342603
     4         7.351109
     5        -3.731944
     6        -3.731944
     7        -3.731944
     8        -3.731944
     9        -3.731944
    10        -3.731944
 
 Time for wannierise            7.877 (sec)

 Writing checkpoint file graphite.chk... done

 *---------------------------------------------------------------------------*
 |                               PLOTTING                                    |
 *---------------------------------------------------------------------------*
 
 
 Calculating interpolated band-structure
 
 Time to calculate interpolated band structure       2.043 (sec)
 
 Time for plotting             13.688 (sec)
 Total Execution Time          37.281 (sec)

 *===========================================================================*
 |                             TIMING INFORMATION                            |
 *===========================================================================*
 |    Tag                                                Ncalls      Time (s)|
 |---------------------------------------------------------------------------|
 |kmesh: get                                        :         1         0.271|
 |overlap: allocate                                 :         1         0.001|
 |overlap: read                                     :         1         0.904|
 |dis: main                                         :         1        14.490|
 |wann: main                                        :         1         7.877|
 |plot: main                                        :         1        13.688|
 *---------------------------------------------------------------------------*
 
 All done: wannier90 exiting
