File written on  8Nov2021 at 22:47:06 

calc_only_A  :  F

begin real_lattice
   2.4475420   0.0000000   0.0000000
  -1.2237710   2.1196325   0.0000000
   0.0000000   0.0000000   6.6507914
end real_lattice

begin recip_lattice
   2.5671410   1.4821402   0.0000000
   0.0000000   2.9642805   0.0000000
   0.0000000   0.0000000   0.9447275
end recip_lattice

begin kpoints
   675
    0.00000000    0.00000000    0.00000000
    0.00000000    0.00000000    0.33333333
    0.00000000    0.00000000    0.66666667
    0.00000000    0.06666667    0.00000000
    0.00000000    0.06666667    0.33333333
    0.00000000    0.06666667    0.66666667
    0.00000000    0.13333333    0.00000000
    0.00000000    0.13333333    0.33333333
    0.00000000    0.13333333    0.66666667
    0.00000000    0.20000000    0.00000000
    0.00000000    0.20000000    0.33333333
    0.00000000    0.20000000    0.66666667
    0.00000000    0.26666667    0.00000000
    0.00000000    0.26666667    0.33333333
    0.00000000    0.26666667    0.66666667
    0.00000000    0.33333333    0.00000000
    0.00000000    0.33333333    0.33333333
    0.00000000    0.33333333    0.66666667
    0.00000000    0.40000000    0.00000000
    0.00000000    0.40000000    0.33333333
    0.00000000    0.40000000    0.66666667
    0.00000000    0.46666667    0.00000000
    0.00000000    0.46666667    0.33333333
    0.00000000    0.46666667    0.66666667
    0.00000000    0.53333333    0.00000000
    0.00000000    0.53333333    0.33333333
    0.00000000    0.53333333    0.66666667
    0.00000000    0.60000000    0.00000000
    0.00000000    0.60000000    0.33333333
    0.00000000    0.60000000    0.66666667
    0.00000000    0.66666667    0.00000000
    0.00000000    0.66666667    0.33333333
    0.00000000    0.66666667    0.66666667
    0.00000000    0.73333333    0.00000000
    0.00000000    0.73333333    0.33333333
    0.00000000    0.73333333    0.66666667
    0.00000000    0.80000000    0.00000000
    0.00000000    0.80000000    0.33333333
    0.00000000    0.80000000    0.66666667
    0.00000000    0.86666667    0.00000000
    0.00000000    0.86666667    0.33333333
    0.00000000    0.86666667    0.66666667
    0.00000000    0.93333333    0.00000000
    0.00000000    0.93333333    0.33333333
    0.00000000    0.93333333    0.66666667
    0.06666667    0.00000000    0.00000000
    0.06666667    0.00000000    0.33333333
    0.06666667    0.00000000    0.66666667
    0.06666667    0.06666667    0.00000000
    0.06666667    0.06666667    0.33333333
    0.06666667    0.06666667    0.66666667
    0.06666667    0.13333333    0.00000000
    0.06666667    0.13333333    0.33333333
    0.06666667    0.13333333    0.66666667
    0.06666667    0.20000000    0.00000000
    0.06666667    0.20000000    0.33333333
    0.06666667    0.20000000    0.66666667
    0.06666667    0.26666667    0.00000000
    0.06666667    0.26666667    0.33333333
    0.06666667    0.26666667    0.66666667
    0.06666667    0.33333333    0.00000000
    0.06666667    0.33333333    0.33333333
    0.06666667    0.33333333    0.66666667
    0.06666667    0.40000000    0.00000000
    0.06666667    0.40000000    0.33333333
    0.06666667    0.40000000    0.66666667
    0.06666667    0.46666667    0.00000000
    0.06666667    0.46666667    0.33333333
    0.06666667    0.46666667    0.66666667
    0.06666667    0.53333333    0.00000000
    0.06666667    0.53333333    0.33333333
    0.06666667    0.53333333    0.66666667
    0.06666667    0.60000000    0.00000000
    0.06666667    0.60000000    0.33333333
    0.06666667    0.60000000    0.66666667
    0.06666667    0.66666667    0.00000000
    0.06666667    0.66666667    0.33333333
    0.06666667    0.66666667    0.66666667
    0.06666667    0.73333333    0.00000000
    0.06666667    0.73333333    0.33333333
    0.06666667    0.73333333    0.66666667
    0.06666667    0.80000000    0.00000000
    0.06666667    0.80000000    0.33333333
    0.06666667    0.80000000    0.66666667
    0.06666667    0.86666667    0.00000000
    0.06666667    0.86666667    0.33333333
    0.06666667    0.86666667    0.66666667
    0.06666667    0.93333333    0.00000000
    0.06666667    0.93333333    0.33333333
    0.06666667    0.93333333    0.66666667
    0.13333333    0.00000000    0.00000000
    0.13333333    0.00000000    0.33333333
    0.13333333    0.00000000    0.66666667
    0.13333333    0.06666667    0.00000000
    0.13333333    0.06666667    0.33333333
    0.13333333    0.06666667    0.66666667
    0.13333333    0.13333333    0.00000000
    0.13333333    0.13333333    0.33333333
    0.13333333    0.13333333    0.66666667
    0.13333333    0.20000000    0.00000000
    0.13333333    0.20000000    0.33333333
    0.13333333    0.20000000    0.66666667
    0.13333333    0.26666667    0.00000000
    0.13333333    0.26666667    0.33333333
    0.13333333    0.26666667    0.66666667
    0.13333333    0.33333333    0.00000000
    0.13333333    0.33333333    0.33333333
    0.13333333    0.33333333    0.66666667
    0.13333333    0.40000000    0.00000000
    0.13333333    0.40000000    0.33333333
    0.13333333    0.40000000    0.66666667
    0.13333333    0.46666667    0.00000000
    0.13333333    0.46666667    0.33333333
    0.13333333    0.46666667    0.66666667
    0.13333333    0.53333333    0.00000000
    0.13333333    0.53333333    0.33333333
    0.13333333    0.53333333    0.66666667
    0.13333333    0.60000000    0.00000000
    0.13333333    0.60000000    0.33333333
    0.13333333    0.60000000    0.66666667
    0.13333333    0.66666667    0.00000000
    0.13333333    0.66666667    0.33333333
    0.13333333    0.66666667    0.66666667
    0.13333333    0.73333333    0.00000000
    0.13333333    0.73333333    0.33333333
    0.13333333    0.73333333    0.66666667
    0.13333333    0.80000000    0.00000000
    0.13333333    0.80000000    0.33333333
    0.13333333    0.80000000    0.66666667
    0.13333333    0.86666667    0.00000000
    0.13333333    0.86666667    0.33333333
    0.13333333    0.86666667    0.66666667
    0.13333333    0.93333333    0.00000000
    0.13333333    0.93333333    0.33333333
    0.13333333    0.93333333    0.66666667
    0.20000000    0.00000000    0.00000000
    0.20000000    0.00000000    0.33333333
    0.20000000    0.00000000    0.66666667
    0.20000000    0.06666667    0.00000000
    0.20000000    0.06666667    0.33333333
    0.20000000    0.06666667    0.66666667
    0.20000000    0.13333333    0.00000000
    0.20000000    0.13333333    0.33333333
    0.20000000    0.13333333    0.66666667
    0.20000000    0.20000000    0.00000000
    0.20000000    0.20000000    0.33333333
    0.20000000    0.20000000    0.66666667
    0.20000000    0.26666667    0.00000000
    0.20000000    0.26666667    0.33333333
    0.20000000    0.26666667    0.66666667
    0.20000000    0.33333333    0.00000000
    0.20000000    0.33333333    0.33333333
    0.20000000    0.33333333    0.66666667
    0.20000000    0.40000000    0.00000000
    0.20000000    0.40000000    0.33333333
    0.20000000    0.40000000    0.66666667
    0.20000000    0.46666667    0.00000000
    0.20000000    0.46666667    0.33333333
    0.20000000    0.46666667    0.66666667
    0.20000000    0.53333333    0.00000000
    0.20000000    0.53333333    0.33333333
    0.20000000    0.53333333    0.66666667
    0.20000000    0.60000000    0.00000000
    0.20000000    0.60000000    0.33333333
    0.20000000    0.60000000    0.66666667
    0.20000000    0.66666667    0.00000000
    0.20000000    0.66666667    0.33333333
    0.20000000    0.66666667    0.66666667
    0.20000000    0.73333333    0.00000000
    0.20000000    0.73333333    0.33333333
    0.20000000    0.73333333    0.66666667
    0.20000000    0.80000000    0.00000000
    0.20000000    0.80000000    0.33333333
    0.20000000    0.80000000    0.66666667
    0.20000000    0.86666667    0.00000000
    0.20000000    0.86666667    0.33333333
    0.20000000    0.86666667    0.66666667
    0.20000000    0.93333333    0.00000000
    0.20000000    0.93333333    0.33333333
    0.20000000    0.93333333    0.66666667
    0.26666667    0.00000000    0.00000000
    0.26666667    0.00000000    0.33333333
    0.26666667    0.00000000    0.66666667
    0.26666667    0.06666667    0.00000000
    0.26666667    0.06666667    0.33333333
    0.26666667    0.06666667    0.66666667
    0.26666667    0.13333333    0.00000000
    0.26666667    0.13333333    0.33333333
    0.26666667    0.13333333    0.66666667
    0.26666667    0.20000000    0.00000000
    0.26666667    0.20000000    0.33333333
    0.26666667    0.20000000    0.66666667
    0.26666667    0.26666667    0.00000000
    0.26666667    0.26666667    0.33333333
    0.26666667    0.26666667    0.66666667
    0.26666667    0.33333333    0.00000000
    0.26666667    0.33333333    0.33333333
    0.26666667    0.33333333    0.66666667
    0.26666667    0.40000000    0.00000000
    0.26666667    0.40000000    0.33333333
    0.26666667    0.40000000    0.66666667
    0.26666667    0.46666667    0.00000000
    0.26666667    0.46666667    0.33333333
    0.26666667    0.46666667    0.66666667
    0.26666667    0.53333333    0.00000000
    0.26666667    0.53333333    0.33333333
    0.26666667    0.53333333    0.66666667
    0.26666667    0.60000000    0.00000000
    0.26666667    0.60000000    0.33333333
    0.26666667    0.60000000    0.66666667
    0.26666667    0.66666667    0.00000000
    0.26666667    0.66666667    0.33333333
    0.26666667    0.66666667    0.66666667
    0.26666667    0.73333333    0.00000000
    0.26666667    0.73333333    0.33333333
    0.26666667    0.73333333    0.66666667
    0.26666667    0.80000000    0.00000000
    0.26666667    0.80000000    0.33333333
    0.26666667    0.80000000    0.66666667
    0.26666667    0.86666667    0.00000000
    0.26666667    0.86666667    0.33333333
    0.26666667    0.86666667    0.66666667
    0.26666667    0.93333333    0.00000000
    0.26666667    0.93333333    0.33333333
    0.26666667    0.93333333    0.66666667
    0.33333333    0.00000000    0.00000000
    0.33333333    0.00000000    0.33333333
    0.33333333    0.00000000    0.66666667
    0.33333333    0.06666667    0.00000000
    0.33333333    0.06666667    0.33333333
    0.33333333    0.06666667    0.66666667
    0.33333333    0.13333333    0.00000000
    0.33333333    0.13333333    0.33333333
    0.33333333    0.13333333    0.66666667
    0.33333333    0.20000000    0.00000000
    0.33333333    0.20000000    0.33333333
    0.33333333    0.20000000    0.66666667
    0.33333333    0.26666667    0.00000000
    0.33333333    0.26666667    0.33333333
    0.33333333    0.26666667    0.66666667
    0.33333333    0.33333333    0.00000000
    0.33333333    0.33333333    0.33333333
    0.33333333    0.33333333    0.66666667
    0.33333333    0.40000000    0.00000000
    0.33333333    0.40000000    0.33333333
    0.33333333    0.40000000    0.66666667
    0.33333333    0.46666667    0.00000000
    0.33333333    0.46666667    0.33333333
    0.33333333    0.46666667    0.66666667
    0.33333333    0.53333333    0.00000000
    0.33333333    0.53333333    0.33333333
    0.33333333    0.53333333    0.66666667
    0.33333333    0.60000000    0.00000000
    0.33333333    0.60000000    0.33333333
    0.33333333    0.60000000    0.66666667
    0.33333333    0.66666667    0.00000000
    0.33333333    0.66666667    0.33333333
    0.33333333    0.66666667    0.66666667
    0.33333333    0.73333333    0.00000000
    0.33333333    0.73333333    0.33333333
    0.33333333    0.73333333    0.66666667
    0.33333333    0.80000000    0.00000000
    0.33333333    0.80000000    0.33333333
    0.33333333    0.80000000    0.66666667
    0.33333333    0.86666667    0.00000000
    0.33333333    0.86666667    0.33333333
    0.33333333    0.86666667    0.66666667
    0.33333333    0.93333333    0.00000000
    0.33333333    0.93333333    0.33333333
    0.33333333    0.93333333    0.66666667
    0.40000000    0.00000000    0.00000000
    0.40000000    0.00000000    0.33333333
    0.40000000    0.00000000    0.66666667
    0.40000000    0.06666667    0.00000000
    0.40000000    0.06666667    0.33333333
    0.40000000    0.06666667    0.66666667
    0.40000000    0.13333333    0.00000000
    0.40000000    0.13333333    0.33333333
    0.40000000    0.13333333    0.66666667
    0.40000000    0.20000000    0.00000000
    0.40000000    0.20000000    0.33333333
    0.40000000    0.20000000    0.66666667
    0.40000000    0.26666667    0.00000000
    0.40000000    0.26666667    0.33333333
    0.40000000    0.26666667    0.66666667
    0.40000000    0.33333333    0.00000000
    0.40000000    0.33333333    0.33333333
    0.40000000    0.33333333    0.66666667
    0.40000000    0.40000000    0.00000000
    0.40000000    0.40000000    0.33333333
    0.40000000    0.40000000    0.66666667
    0.40000000    0.46666667    0.00000000
    0.40000000    0.46666667    0.33333333
    0.40000000    0.46666667    0.66666667
    0.40000000    0.53333333    0.00000000
    0.40000000    0.53333333    0.33333333
    0.40000000    0.53333333    0.66666667
    0.40000000    0.60000000    0.00000000
    0.40000000    0.60000000    0.33333333
    0.40000000    0.60000000    0.66666667
    0.40000000    0.66666667    0.00000000
    0.40000000    0.66666667    0.33333333
    0.40000000    0.66666667    0.66666667
    0.40000000    0.73333333    0.00000000
    0.40000000    0.73333333    0.33333333
    0.40000000    0.73333333    0.66666667
    0.40000000    0.80000000    0.00000000
    0.40000000    0.80000000    0.33333333
    0.40000000    0.80000000    0.66666667
    0.40000000    0.86666667    0.00000000
    0.40000000    0.86666667    0.33333333
    0.40000000    0.86666667    0.66666667
    0.40000000    0.93333333    0.00000000
    0.40000000    0.93333333    0.33333333
    0.40000000    0.93333333    0.66666667
    0.46666667    0.00000000    0.00000000
    0.46666667    0.00000000    0.33333333
    0.46666667    0.00000000    0.66666667
    0.46666667    0.06666667    0.00000000
    0.46666667    0.06666667    0.33333333
    0.46666667    0.06666667    0.66666667
    0.46666667    0.13333333    0.00000000
    0.46666667    0.13333333    0.33333333
    0.46666667    0.13333333    0.66666667
    0.46666667    0.20000000    0.00000000
    0.46666667    0.20000000    0.33333333
    0.46666667    0.20000000    0.66666667
    0.46666667    0.26666667    0.00000000
    0.46666667    0.26666667    0.33333333
    0.46666667    0.26666667    0.66666667
    0.46666667    0.33333333    0.00000000
    0.46666667    0.33333333    0.33333333
    0.46666667    0.33333333    0.66666667
    0.46666667    0.40000000    0.00000000
    0.46666667    0.40000000    0.33333333
    0.46666667    0.40000000    0.66666667
    0.46666667    0.46666667    0.00000000
    0.46666667    0.46666667    0.33333333
    0.46666667    0.46666667    0.66666667
    0.46666667    0.53333333    0.00000000
    0.46666667    0.53333333    0.33333333
    0.46666667    0.53333333    0.66666667
    0.46666667    0.60000000    0.00000000
    0.46666667    0.60000000    0.33333333
    0.46666667    0.60000000    0.66666667
    0.46666667    0.66666667    0.00000000
    0.46666667    0.66666667    0.33333333
    0.46666667    0.66666667    0.66666667
    0.46666667    0.73333333    0.00000000
    0.46666667    0.73333333    0.33333333
    0.46666667    0.73333333    0.66666667
    0.46666667    0.80000000    0.00000000
    0.46666667    0.80000000    0.33333333
    0.46666667    0.80000000    0.66666667
    0.46666667    0.86666667    0.00000000
    0.46666667    0.86666667    0.33333333
    0.46666667    0.86666667    0.66666667
    0.46666667    0.93333333    0.00000000
    0.46666667    0.93333333    0.33333333
    0.46666667    0.93333333    0.66666667
    0.53333333    0.00000000    0.00000000
    0.53333333    0.00000000    0.33333333
    0.53333333    0.00000000    0.66666667
    0.53333333    0.06666667    0.00000000
    0.53333333    0.06666667    0.33333333
    0.53333333    0.06666667    0.66666667
    0.53333333    0.13333333    0.00000000
    0.53333333    0.13333333    0.33333333
    0.53333333    0.13333333    0.66666667
    0.53333333    0.20000000    0.00000000
    0.53333333    0.20000000    0.33333333
    0.53333333    0.20000000    0.66666667
    0.53333333    0.26666667    0.00000000
    0.53333333    0.26666667    0.33333333
    0.53333333    0.26666667    0.66666667
    0.53333333    0.33333333    0.00000000
    0.53333333    0.33333333    0.33333333
    0.53333333    0.33333333    0.66666667
    0.53333333    0.40000000    0.00000000
    0.53333333    0.40000000    0.33333333
    0.53333333    0.40000000    0.66666667
    0.53333333    0.46666667    0.00000000
    0.53333333    0.46666667    0.33333333
    0.53333333    0.46666667    0.66666667
    0.53333333    0.53333333    0.00000000
    0.53333333    0.53333333    0.33333333
    0.53333333    0.53333333    0.66666667
    0.53333333    0.60000000    0.00000000
    0.53333333    0.60000000    0.33333333
    0.53333333    0.60000000    0.66666667
    0.53333333    0.66666667    0.00000000
    0.53333333    0.66666667    0.33333333
    0.53333333    0.66666667    0.66666667
    0.53333333    0.73333333    0.00000000
    0.53333333    0.73333333    0.33333333
    0.53333333    0.73333333    0.66666667
    0.53333333    0.80000000    0.00000000
    0.53333333    0.80000000    0.33333333
    0.53333333    0.80000000    0.66666667
    0.53333333    0.86666667    0.00000000
    0.53333333    0.86666667    0.33333333
    0.53333333    0.86666667    0.66666667
    0.53333333    0.93333333    0.00000000
    0.53333333    0.93333333    0.33333333
    0.53333333    0.93333333    0.66666667
    0.60000000    0.00000000    0.00000000
    0.60000000    0.00000000    0.33333333
    0.60000000    0.00000000    0.66666667
    0.60000000    0.06666667    0.00000000
    0.60000000    0.06666667    0.33333333
    0.60000000    0.06666667    0.66666667
    0.60000000    0.13333333    0.00000000
    0.60000000    0.13333333    0.33333333
    0.60000000    0.13333333    0.66666667
    0.60000000    0.20000000    0.00000000
    0.60000000    0.20000000    0.33333333
    0.60000000    0.20000000    0.66666667
    0.60000000    0.26666667    0.00000000
    0.60000000    0.26666667    0.33333333
    0.60000000    0.26666667    0.66666667
    0.60000000    0.33333333    0.00000000
    0.60000000    0.33333333    0.33333333
    0.60000000    0.33333333    0.66666667
    0.60000000    0.40000000    0.00000000
    0.60000000    0.40000000    0.33333333
    0.60000000    0.40000000    0.66666667
    0.60000000    0.46666667    0.00000000
    0.60000000    0.46666667    0.33333333
    0.60000000    0.46666667    0.66666667
    0.60000000    0.53333333    0.00000000
    0.60000000    0.53333333    0.33333333
    0.60000000    0.53333333    0.66666667
    0.60000000    0.60000000    0.00000000
    0.60000000    0.60000000    0.33333333
    0.60000000    0.60000000    0.66666667
    0.60000000    0.66666667    0.00000000
    0.60000000    0.66666667    0.33333333
    0.60000000    0.66666667    0.66666667
    0.60000000    0.73333333    0.00000000
    0.60000000    0.73333333    0.33333333
    0.60000000    0.73333333    0.66666667
    0.60000000    0.80000000    0.00000000
    0.60000000    0.80000000    0.33333333
    0.60000000    0.80000000    0.66666667
    0.60000000    0.86666667    0.00000000
    0.60000000    0.86666667    0.33333333
    0.60000000    0.86666667    0.66666667
    0.60000000    0.93333333    0.00000000
    0.60000000    0.93333333    0.33333333
    0.60000000    0.93333333    0.66666667
    0.66666667    0.00000000    0.00000000
    0.66666667    0.00000000    0.33333333
    0.66666667    0.00000000    0.66666667
    0.66666667    0.06666667    0.00000000
    0.66666667    0.06666667    0.33333333
    0.66666667    0.06666667    0.66666667
    0.66666667    0.13333333    0.00000000
    0.66666667    0.13333333    0.33333333
    0.66666667    0.13333333    0.66666667
    0.66666667    0.20000000    0.00000000
    0.66666667    0.20000000    0.33333333
    0.66666667    0.20000000    0.66666667
    0.66666667    0.26666667    0.00000000
    0.66666667    0.26666667    0.33333333
    0.66666667    0.26666667    0.66666667
    0.66666667    0.33333333    0.00000000
    0.66666667    0.33333333    0.33333333
    0.66666667    0.33333333    0.66666667
    0.66666667    0.40000000    0.00000000
    0.66666667    0.40000000    0.33333333
    0.66666667    0.40000000    0.66666667
    0.66666667    0.46666667    0.00000000
    0.66666667    0.46666667    0.33333333
    0.66666667    0.46666667    0.66666667
    0.66666667    0.53333333    0.00000000
    0.66666667    0.53333333    0.33333333
    0.66666667    0.53333333    0.66666667
    0.66666667    0.60000000    0.00000000
    0.66666667    0.60000000    0.33333333
    0.66666667    0.60000000    0.66666667
    0.66666667    0.66666667    0.00000000
    0.66666667    0.66666667    0.33333333
    0.66666667    0.66666667    0.66666667
    0.66666667    0.73333333    0.00000000
    0.66666667    0.73333333    0.33333333
    0.66666667    0.73333333    0.66666667
    0.66666667    0.80000000    0.00000000
    0.66666667    0.80000000    0.33333333
    0.66666667    0.80000000    0.66666667
    0.66666667    0.86666667    0.00000000
    0.66666667    0.86666667    0.33333333
    0.66666667    0.86666667    0.66666667
    0.66666667    0.93333333    0.00000000
    0.66666667    0.93333333    0.33333333
    0.66666667    0.93333333    0.66666667
    0.73333333    0.00000000    0.00000000
    0.73333333    0.00000000    0.33333333
    0.73333333    0.00000000    0.66666667
    0.73333333    0.06666667    0.00000000
    0.73333333    0.06666667    0.33333333
    0.73333333    0.06666667    0.66666667
    0.73333333    0.13333333    0.00000000
    0.73333333    0.13333333    0.33333333
    0.73333333    0.13333333    0.66666667
    0.73333333    0.20000000    0.00000000
    0.73333333    0.20000000    0.33333333
    0.73333333    0.20000000    0.66666667
    0.73333333    0.26666667    0.00000000
    0.73333333    0.26666667    0.33333333
    0.73333333    0.26666667    0.66666667
    0.73333333    0.33333333    0.00000000
    0.73333333    0.33333333    0.33333333
    0.73333333    0.33333333    0.66666667
    0.73333333    0.40000000    0.00000000
    0.73333333    0.40000000    0.33333333
    0.73333333    0.40000000    0.66666667
    0.73333333    0.46666667    0.00000000
    0.73333333    0.46666667    0.33333333
    0.73333333    0.46666667    0.66666667
    0.73333333    0.53333333    0.00000000
    0.73333333    0.53333333    0.33333333
    0.73333333    0.53333333    0.66666667
    0.73333333    0.60000000    0.00000000
    0.73333333    0.60000000    0.33333333
    0.73333333    0.60000000    0.66666667
    0.73333333    0.66666667    0.00000000
    0.73333333    0.66666667    0.33333333
    0.73333333    0.66666667    0.66666667
    0.73333333    0.73333333    0.00000000
    0.73333333    0.73333333    0.33333333
    0.73333333    0.73333333    0.66666667
    0.73333333    0.80000000    0.00000000
    0.73333333    0.80000000    0.33333333
    0.73333333    0.80000000    0.66666667
    0.73333333    0.86666667    0.00000000
    0.73333333    0.86666667    0.33333333
    0.73333333    0.86666667    0.66666667
    0.73333333    0.93333333    0.00000000
    0.73333333    0.93333333    0.33333333
    0.73333333    0.93333333    0.66666667
    0.80000000    0.00000000    0.00000000
    0.80000000    0.00000000    0.33333333
    0.80000000    0.00000000    0.66666667
    0.80000000    0.06666667    0.00000000
    0.80000000    0.06666667    0.33333333
    0.80000000    0.06666667    0.66666667
    0.80000000    0.13333333    0.00000000
    0.80000000    0.13333333    0.33333333
    0.80000000    0.13333333    0.66666667
    0.80000000    0.20000000    0.00000000
    0.80000000    0.20000000    0.33333333
    0.80000000    0.20000000    0.66666667
    0.80000000    0.26666667    0.00000000
    0.80000000    0.26666667    0.33333333
    0.80000000    0.26666667    0.66666667
    0.80000000    0.33333333    0.00000000
    0.80000000    0.33333333    0.33333333
    0.80000000    0.33333333    0.66666667
    0.80000000    0.40000000    0.00000000
    0.80000000    0.40000000    0.33333333
    0.80000000    0.40000000    0.66666667
    0.80000000    0.46666667    0.00000000
    0.80000000    0.46666667    0.33333333
    0.80000000    0.46666667    0.66666667
    0.80000000    0.53333333    0.00000000
    0.80000000    0.53333333    0.33333333
    0.80000000    0.53333333    0.66666667
    0.80000000    0.60000000    0.00000000
    0.80000000    0.60000000    0.33333333
    0.80000000    0.60000000    0.66666667
    0.80000000    0.66666667    0.00000000
    0.80000000    0.66666667    0.33333333
    0.80000000    0.66666667    0.66666667
    0.80000000    0.73333333    0.00000000
    0.80000000    0.73333333    0.33333333
    0.80000000    0.73333333    0.66666667
    0.80000000    0.80000000    0.00000000
    0.80000000    0.80000000    0.33333333
    0.80000000    0.80000000    0.66666667
    0.80000000    0.86666667    0.00000000
    0.80000000    0.86666667    0.33333333
    0.80000000    0.86666667    0.66666667
    0.80000000    0.93333333    0.00000000
    0.80000000    0.93333333    0.33333333
    0.80000000    0.93333333    0.66666667
    0.86666667    0.00000000    0.00000000
    0.86666667    0.00000000    0.33333333
    0.86666667    0.00000000    0.66666667
    0.86666667    0.06666667    0.00000000
    0.86666667    0.06666667    0.33333333
    0.86666667    0.06666667    0.66666667
    0.86666667    0.13333333    0.00000000
    0.86666667    0.13333333    0.33333333
    0.86666667    0.13333333    0.66666667
    0.86666667    0.20000000    0.00000000
    0.86666667    0.20000000    0.33333333
    0.86666667    0.20000000    0.66666667
    0.86666667    0.26666667    0.00000000
    0.86666667    0.26666667    0.33333333
    0.86666667    0.26666667    0.66666667
    0.86666667    0.33333333    0.00000000
    0.86666667    0.33333333    0.33333333
    0.86666667    0.33333333    0.66666667
    0.86666667    0.40000000    0.00000000
    0.86666667    0.40000000    0.33333333
    0.86666667    0.40000000    0.66666667
    0.86666667    0.46666667    0.00000000
    0.86666667    0.46666667    0.33333333
    0.86666667    0.46666667    0.66666667
    0.86666667    0.53333333    0.00000000
    0.86666667    0.53333333    0.33333333
    0.86666667    0.53333333    0.66666667
    0.86666667    0.60000000    0.00000000
    0.86666667    0.60000000    0.33333333
    0.86666667    0.60000000    0.66666667
    0.86666667    0.66666667    0.00000000
    0.86666667    0.66666667    0.33333333
    0.86666667    0.66666667    0.66666667
    0.86666667    0.73333333    0.00000000
    0.86666667    0.73333333    0.33333333
    0.86666667    0.73333333    0.66666667
    0.86666667    0.80000000    0.00000000
    0.86666667    0.80000000    0.33333333
    0.86666667    0.80000000    0.66666667
    0.86666667    0.86666667    0.00000000
    0.86666667    0.86666667    0.33333333
    0.86666667    0.86666667    0.66666667
    0.86666667    0.93333333    0.00000000
    0.86666667    0.93333333    0.33333333
    0.86666667    0.93333333    0.66666667
    0.93333333    0.00000000    0.00000000
    0.93333333    0.00000000    0.33333333
    0.93333333    0.00000000    0.66666667
    0.93333333    0.06666667    0.00000000
    0.93333333    0.06666667    0.33333333
    0.93333333    0.06666667    0.66666667
    0.93333333    0.13333333    0.00000000
    0.93333333    0.13333333    0.33333333
    0.93333333    0.13333333    0.66666667
    0.93333333    0.20000000    0.00000000
    0.93333333    0.20000000    0.33333333
    0.93333333    0.20000000    0.66666667
    0.93333333    0.26666667    0.00000000
    0.93333333    0.26666667    0.33333333
    0.93333333    0.26666667    0.66666667
    0.93333333    0.33333333    0.00000000
    0.93333333    0.33333333    0.33333333
    0.93333333    0.33333333    0.66666667
    0.93333333    0.40000000    0.00000000
    0.93333333    0.40000000    0.33333333
    0.93333333    0.40000000    0.66666667
    0.93333333    0.46666667    0.00000000
    0.93333333    0.46666667    0.33333333
    0.93333333    0.46666667    0.66666667
    0.93333333    0.53333333    0.00000000
    0.93333333    0.53333333    0.33333333
    0.93333333    0.53333333    0.66666667
    0.93333333    0.60000000    0.00000000
    0.93333333    0.60000000    0.33333333
    0.93333333    0.60000000    0.66666667
    0.93333333    0.66666667    0.00000000
    0.93333333    0.66666667    0.33333333
    0.93333333    0.66666667    0.66666667
    0.93333333    0.73333333    0.00000000
    0.93333333    0.73333333    0.33333333
    0.93333333    0.73333333    0.66666667
    0.93333333    0.80000000    0.00000000
    0.93333333    0.80000000    0.33333333
    0.93333333    0.80000000    0.66666667
    0.93333333    0.86666667    0.00000000
    0.93333333    0.86666667    0.33333333
    0.93333333    0.86666667    0.66666667
    0.93333333    0.93333333    0.00000000
    0.93333333    0.93333333    0.33333333
    0.93333333    0.93333333    0.66666667
end kpoints

begin projections
    10
   0.00000    0.00000    0.00000     1  1  1
    0.0000000  0.0000000  1.0000000   1.0000000  0.0000000  0.0000000    1.00
   0.33333    0.66667    0.00000     1  1  1
    0.0000000  0.0000000  1.0000000   1.0000000  0.0000000  0.0000000    1.00
   0.33333    0.66667    0.50000     1  1  1
    0.0000000  0.0000000  1.0000000   1.0000000  0.0000000  0.0000000    1.00
   0.66667    0.33333    0.50000     1  1  1
    0.0000000  0.0000000  1.0000000   1.0000000  0.0000000  0.0000000    1.00
   0.16667    0.33333    0.00000     0  1  1
    0.0000000  0.0000000  1.0000000   1.0000000  0.0000000  0.0000000    1.00
   0.16667    0.83333    0.00000     0  1  1
    0.0000000  0.0000000  1.0000000   1.0000000  0.0000000  0.0000000    1.00
   0.66667    0.83333    0.00000     0  1  1
    0.0000000  0.0000000  1.0000000   1.0000000  0.0000000  0.0000000    1.00
   0.00000    0.50000    0.50000     0  1  1
    0.0000000  0.0000000  1.0000000   1.0000000  0.0000000  0.0000000    1.00
   0.50000    0.50000    0.50000     0  1  1
    0.0000000  0.0000000  1.0000000   1.0000000  0.0000000  0.0000000    1.00
   0.50000    1.00000    0.50000     0  1  1
    0.0000000  0.0000000  1.0000000   1.0000000  0.0000000  0.0000000    1.00
end projections

begin nnkpts
   8
     1     4      0   0   0
     1    46      0   0   0
     1   631     -1   0   0
     1   634     -1   0   0
     1    43      0  -1   0
     1    88      0  -1   0
     1     2      0   0   0
     1     3      0   0  -1
     2     5      0   0   0
     2    47      0   0   0
     2   632     -1   0   0
     2   635     -1   0   0
     2    44      0  -1   0
     2    89      0  -1   0
     2     1      0   0   0
     2     3      0   0   0
     3     6      0   0   0
     3    48      0   0   0
     3   633     -1   0   0
     3   636     -1   0   0
     3    45      0  -1   0
     3    90      0  -1   0
     3     2      0   0   0
     3     1      0   0   1
     4     1      0   0   0
     4     7      0   0   0
     4    46      0   0   0
     4    49      0   0   0
     4   634     -1   0   0
     4   637     -1   0   0
     4     5      0   0   0
     4     6      0   0  -1
     5     2      0   0   0
     5     8      0   0   0
     5    47      0   0   0
     5    50      0   0   0
     5   635     -1   0   0
     5   638     -1   0   0
     5     4      0   0   0
     5     6      0   0   0
     6     3      0   0   0
     6     9      0   0   0
     6    48      0   0   0
     6    51      0   0   0
     6   636     -1   0   0
     6   639     -1   0   0
     6     5      0   0   0
     6     4      0   0   1
     7     4      0   0   0
     7    10      0   0   0
     7    49      0   0   0
     7    52      0   0   0
     7   637     -1   0   0
     7   640     -1   0   0
     7     8      0   0   0
     7     9      0   0  -1
     8     5      0   0   0
     8    11      0   0   0
     8    50      0   0   0
     8    53      0   0   0
     8   638     -1   0   0
     8   641     -1   0   0
     8     7      0   0   0
     8     9      0   0   0
     9     6      0   0   0
     9    12      0   0   0
     9    51      0   0   0
     9    54      0   0   0
     9   639     -1   0   0
     9   642     -1   0   0
     9     8      0   0   0
     9     7      0   0   1
    10     7      0   0   0
    10    13      0   0   0
    10    52      0   0   0
    10    55      0   0   0
    10   640     -1   0   0
    10   643     -1   0   0
    10    11      0   0   0
    10    12      0   0  -1
    11     8      0   0   0
    11    14      0   0   0
    11    53      0   0   0
    11    56      0   0   0
    11   641     -1   0   0
    11   644     -1   0   0
    11    10      0   0   0
    11    12      0   0   0
    12     9      0   0   0
    12    15      0   0   0
    12    54      0   0   0
    12    57      0   0   0
    12   642     -1   0   0
    12   645     -1   0   0
    12    11      0   0   0
    12    10      0   0   1
    13    10      0   0   0
    13    16      0   0   0
    13    55      0   0   0
    13    58      0   0   0
    13   643     -1   0   0
    13   646     -1   0   0
    13    14      0   0   0
    13    15      0   0  -1
    14    11      0   0   0
    14    17      0   0   0
    14    56      0   0   0
    14    59      0   0   0
    14   644     -1   0   0
    14   647     -1   0   0
    14    13      0   0   0
    14    15      0   0   0
    15    12      0   0   0
    15    18      0   0   0
    15    57      0   0   0
    15    60      0   0   0
    15   645     -1   0   0
    15   648     -1   0   0
    15    14      0   0   0
    15    13      0   0   1
    16    13      0   0   0
    16    19      0   0   0
    16    58      0   0   0
    16    61      0   0   0
    16   646     -1   0   0
    16   649     -1   0   0
    16    17      0   0   0
    16    18      0   0  -1
    17    14      0   0   0
    17    20      0   0   0
    17    59      0   0   0
    17    62      0   0   0
    17   647     -1   0   0
    17   650     -1   0   0
    17    16      0   0   0
    17    18      0   0   0
    18    15      0   0   0
    18    21      0   0   0
    18    60      0   0   0
    18    63      0   0   0
    18   648     -1   0   0
    18   651     -1   0   0
    18    17      0   0   0
    18    16      0   0   1
    19    16      0   0   0
    19    22      0   0   0
    19    61      0   0   0
    19    64      0   0   0
    19   649     -1   0   0
    19   652     -1   0   0
    19    20      0   0   0
    19    21      0   0  -1
    20    17      0   0   0
    20    23      0   0   0
    20    62      0   0   0
    20    65      0   0   0
    20   650     -1   0   0
    20   653     -1   0   0
    20    19      0   0   0
    20    21      0   0   0
    21    18      0   0   0
    21    24      0   0   0
    21    63      0   0   0
    21    66      0   0   0
    21   651     -1   0   0
    21   654     -1   0   0
    21    20      0   0   0
    21    19      0   0   1
    22    19      0   0   0
    22    25      0   0   0
    22    64      0   0   0
    22    67      0   0   0
    22   652     -1   0   0
    22   655     -1   0   0
    22    23      0   0   0
    22    24      0   0  -1
    23    20      0   0   0
    23    26      0   0   0
    23    65      0   0   0
    23    68      0   0   0
    23   653     -1   0   0
    23   656     -1   0   0
    23    22      0   0   0
    23    24      0   0   0
    24    21      0   0   0
    24    27      0   0   0
    24    66      0   0   0
    24    69      0   0   0
    24   654     -1   0   0
    24   657     -1   0   0
    24    23      0   0   0
    24    22      0   0   1
    25    22      0   0   0
    25    28      0   0   0
    25    67      0   0   0
    25    70      0   0   0
    25   655     -1   0   0
    25   658     -1   0   0
    25    26      0   0   0
    25    27      0   0  -1
    26    23      0   0   0
    26    29      0   0   0
    26    68      0   0   0
    26    71      0   0   0
    26   656     -1   0   0
    26   659     -1   0   0
    26    25      0   0   0
    26    27      0   0   0
    27    24      0   0   0
    27    30      0   0   0
    27    69      0   0   0
    27    72      0   0   0
    27   657     -1   0   0
    27   660     -1   0   0
    27    26      0   0   0
    27    25      0   0   1
    28    25      0   0   0
    28    31      0   0   0
    28    70      0   0   0
    28    73      0   0   0
    28   658     -1   0   0
    28   661     -1   0   0
    28    29      0   0   0
    28    30      0   0  -1
    29    26      0   0   0
    29    32      0   0   0
    29    71      0   0   0
    29    74      0   0   0
    29   659     -1   0   0
    29   662     -1   0   0
    29    28      0   0   0
    29    30      0   0   0
    30    27      0   0   0
    30    33      0   0   0
    30    72      0   0   0
    30    75      0   0   0
    30   660     -1   0   0
    30   663     -1   0   0
    30    29      0   0   0
    30    28      0   0   1
    31    28      0   0   0
    31    34      0   0   0
    31    73      0   0   0
    31    76      0   0   0
    31   661     -1   0   0
    31   664     -1   0   0
    31    32      0   0   0
    31    33      0   0  -1
    32    29      0   0   0
    32    35      0   0   0
    32    74      0   0   0
    32    77      0   0   0
    32   662     -1   0   0
    32   665     -1   0   0
    32    31      0   0   0
    32    33      0   0   0
    33    30      0   0   0
    33    36      0   0   0
    33    75      0   0   0
    33    78      0   0   0
    33   663     -1   0   0
    33   666     -1   0   0
    33    32      0   0   0
    33    31      0   0   1
    34    31      0   0   0
    34    37      0   0   0
    34    76      0   0   0
    34    79      0   0   0
    34   664     -1   0   0
    34   667     -1   0   0
    34    35      0   0   0
    34    36      0   0  -1
    35    32      0   0   0
    35    38      0   0   0
    35    77      0   0   0
    35    80      0   0   0
    35   665     -1   0   0
    35   668     -1   0   0
    35    34      0   0   0
    35    36      0   0   0
    36    33      0   0   0
    36    39      0   0   0
    36    78      0   0   0
    36    81      0   0   0
    36   666     -1   0   0
    36   669     -1   0   0
    36    35      0   0   0
    36    34      0   0   1
    37    34      0   0   0
    37    40      0   0   0
    37    79      0   0   0
    37    82      0   0   0
    37   667     -1   0   0
    37   670     -1   0   0
    37    38      0   0   0
    37    39      0   0  -1
    38    35      0   0   0
    38    41      0   0   0
    38    80      0   0   0
    38    83      0   0   0
    38   668     -1   0   0
    38   671     -1   0   0
    38    37      0   0   0
    38    39      0   0   0
    39    36      0   0   0
    39    42      0   0   0
    39    81      0   0   0
    39    84      0   0   0
    39   669     -1   0   0
    39   672     -1   0   0
    39    38      0   0   0
    39    37      0   0   1
    40    37      0   0   0
    40    43      0   0   0
    40    82      0   0   0
    40    85      0   0   0
    40   670     -1   0   0
    40   673     -1   0   0
    40    41      0   0   0
    40    42      0   0  -1
    41    38      0   0   0
    41    44      0   0   0
    41    83      0   0   0
    41    86      0   0   0
    41   671     -1   0   0
    41   674     -1   0   0
    41    40      0   0   0
    41    42      0   0   0
    42    39      0   0   0
    42    45      0   0   0
    42    84      0   0   0
    42    87      0   0   0
    42   672     -1   0   0
    42   675     -1   0   0
    42    41      0   0   0
    42    40      0   0   1
    43    40      0   0   0
    43    85      0   0   0
    43    88      0   0   0
    43   631     -1   1   0
    43   673     -1   0   0
    43     1      0   1   0
    43    44      0   0   0
    43    45      0   0  -1
    44    41      0   0   0
    44    86      0   0   0
    44    89      0   0   0
    44   632     -1   1   0
    44   674     -1   0   0
    44     2      0   1   0
    44    43      0   0   0
    44    45      0   0   0
    45    42      0   0   0
    45    87      0   0   0
    45    90      0   0   0
    45   633     -1   1   0
    45   675     -1   0   0
    45     3      0   1   0
    45    44      0   0   0
    45    43      0   0   1
    46     1      0   0   0
    46     4      0   0   0
    46    49      0   0   0
    46    91      0   0   0
    46    88      0  -1   0
    46   133      0  -1   0
    46    47      0   0   0
    46    48      0   0  -1
    47     2      0   0   0
    47     5      0   0   0
    47    50      0   0   0
    47    92      0   0   0
    47    89      0  -1   0
    47   134      0  -1   0
    47    46      0   0   0
    47    48      0   0   0
    48     3      0   0   0
    48     6      0   0   0
    48    51      0   0   0
    48    93      0   0   0
    48    90      0  -1   0
    48   135      0  -1   0
    48    47      0   0   0
    48    46      0   0   1
    49     4      0   0   0
    49     7      0   0   0
    49    46      0   0   0
    49    52      0   0   0
    49    91      0   0   0
    49    94      0   0   0
    49    50      0   0   0
    49    51      0   0  -1
    50     5      0   0   0
    50     8      0   0   0
    50    47      0   0   0
    50    53      0   0   0
    50    92      0   0   0
    50    95      0   0   0
    50    49      0   0   0
    50    51      0   0   0
    51     6      0   0   0
    51     9      0   0   0
    51    48      0   0   0
    51    54      0   0   0
    51    93      0   0   0
    51    96      0   0   0
    51    50      0   0   0
    51    49      0   0   1
    52     7      0   0   0
    52    10      0   0   0
    52    49      0   0   0
    52    55      0   0   0
    52    94      0   0   0
    52    97      0   0   0
    52    53      0   0   0
    52    54      0   0  -1
    53     8      0   0   0
    53    11      0   0   0
    53    50      0   0   0
    53    56      0   0   0
    53    95      0   0   0
    53    98      0   0   0
    53    52      0   0   0
    53    54      0   0   0
    54     9      0   0   0
    54    12      0   0   0
    54    51      0   0   0
    54    57      0   0   0
    54    96      0   0   0
    54    99      0   0   0
    54    53      0   0   0
    54    52      0   0   1
    55    10      0   0   0
    55    13      0   0   0
    55    52      0   0   0
    55    58      0   0   0
    55    97      0   0   0
    55   100      0   0   0
    55    56      0   0   0
    55    57      0   0  -1
    56    11      0   0   0
    56    14      0   0   0
    56    53      0   0   0
    56    59      0   0   0
    56    98      0   0   0
    56   101      0   0   0
    56    55      0   0   0
    56    57      0   0   0
    57    12      0   0   0
    57    15      0   0   0
    57    54      0   0   0
    57    60      0   0   0
    57    99      0   0   0
    57   102      0   0   0
    57    56      0   0   0
    57    55      0   0   1
    58    13      0   0   0
    58    16      0   0   0
    58    55      0   0   0
    58    61      0   0   0
    58   100      0   0   0
    58   103      0   0   0
    58    59      0   0   0
    58    60      0   0  -1
    59    14      0   0   0
    59    17      0   0   0
    59    56      0   0   0
    59    62      0   0   0
    59   101      0   0   0
    59   104      0   0   0
    59    58      0   0   0
    59    60      0   0   0
    60    15      0   0   0
    60    18      0   0   0
    60    57      0   0   0
    60    63      0   0   0
    60   102      0   0   0
    60   105      0   0   0
    60    59      0   0   0
    60    58      0   0   1
    61    16      0   0   0
    61    19      0   0   0
    61    58      0   0   0
    61    64      0   0   0
    61   103      0   0   0
    61   106      0   0   0
    61    62      0   0   0
    61    63      0   0  -1
    62    17      0   0   0
    62    20      0   0   0
    62    59      0   0   0
    62    65      0   0   0
    62   104      0   0   0
    62   107      0   0   0
    62    61      0   0   0
    62    63      0   0   0
    63    18      0   0   0
    63    21      0   0   0
    63    60      0   0   0
    63    66      0   0   0
    63   105      0   0   0
    63   108      0   0   0
    63    62      0   0   0
    63    61      0   0   1
    64    19      0   0   0
    64    22      0   0   0
    64    61      0   0   0
    64    67      0   0   0
    64   106      0   0   0
    64   109      0   0   0
    64    65      0   0   0
    64    66      0   0  -1
    65    20      0   0   0
    65    23      0   0   0
    65    62      0   0   0
    65    68      0   0   0
    65   107      0   0   0
    65   110      0   0   0
    65    64      0   0   0
    65    66      0   0   0
    66    21      0   0   0
    66    24      0   0   0
    66    63      0   0   0
    66    69      0   0   0
    66   108      0   0   0
    66   111      0   0   0
    66    65      0   0   0
    66    64      0   0   1
    67    22      0   0   0
    67    25      0   0   0
    67    64      0   0   0
    67    70      0   0   0
    67   109      0   0   0
    67   112      0   0   0
    67    68      0   0   0
    67    69      0   0  -1
    68    23      0   0   0
    68    26      0   0   0
    68    65      0   0   0
    68    71      0   0   0
    68   110      0   0   0
    68   113      0   0   0
    68    67      0   0   0
    68    69      0   0   0
    69    24      0   0   0
    69    27      0   0   0
    69    66      0   0   0
    69    72      0   0   0
    69   111      0   0   0
    69   114      0   0   0
    69    68      0   0   0
    69    67      0   0   1
    70    25      0   0   0
    70    28      0   0   0
    70    67      0   0   0
    70    73      0   0   0
    70   112      0   0   0
    70   115      0   0   0
    70    71      0   0   0
    70    72      0   0  -1
    71    26      0   0   0
    71    29      0   0   0
    71    68      0   0   0
    71    74      0   0   0
    71   113      0   0   0
    71   116      0   0   0
    71    70      0   0   0
    71    72      0   0   0
    72    27      0   0   0
    72    30      0   0   0
    72    69      0   0   0
    72    75      0   0   0
    72   114      0   0   0
    72   117      0   0   0
    72    71      0   0   0
    72    70      0   0   1
    73    28      0   0   0
    73    31      0   0   0
    73    70      0   0   0
    73    76      0   0   0
    73   115      0   0   0
    73   118      0   0   0
    73    74      0   0   0
    73    75      0   0  -1
    74    29      0   0   0
    74    32      0   0   0
    74    71      0   0   0
    74    77      0   0   0
    74   116      0   0   0
    74   119      0   0   0
    74    73      0   0   0
    74    75      0   0   0
    75    30      0   0   0
    75    33      0   0   0
    75    72      0   0   0
    75    78      0   0   0
    75   117      0   0   0
    75   120      0   0   0
    75    74      0   0   0
    75    73      0   0   1
    76    31      0   0   0
    76    34      0   0   0
    76    73      0   0   0
    76    79      0   0   0
    76   118      0   0   0
    76   121      0   0   0
    76    77      0   0   0
    76    78      0   0  -1
    77    32      0   0   0
    77    35      0   0   0
    77    74      0   0   0
    77    80      0   0   0
    77   119      0   0   0
    77   122      0   0   0
    77    76      0   0   0
    77    78      0   0   0
    78    33      0   0   0
    78    36      0   0   0
    78    75      0   0   0
    78    81      0   0   0
    78   120      0   0   0
    78   123      0   0   0
    78    77      0   0   0
    78    76      0   0   1
    79    34      0   0   0
    79    37      0   0   0
    79    76      0   0   0
    79    82      0   0   0
    79   121      0   0   0
    79   124      0   0   0
    79    80      0   0   0
    79    81      0   0  -1
    80    35      0   0   0
    80    38      0   0   0
    80    77      0   0   0
    80    83      0   0   0
    80   122      0   0   0
    80   125      0   0   0
    80    79      0   0   0
    80    81      0   0   0
    81    36      0   0   0
    81    39      0   0   0
    81    78      0   0   0
    81    84      0   0   0
    81   123      0   0   0
    81   126      0   0   0
    81    80      0   0   0
    81    79      0   0   1
    82    37      0   0   0
    82    40      0   0   0
    82    79      0   0   0
    82    85      0   0   0
    82   124      0   0   0
    82   127      0   0   0
    82    83      0   0   0
    82    84      0   0  -1
    83    38      0   0   0
    83    41      0   0   0
    83    80      0   0   0
    83    86      0   0   0
    83   125      0   0   0
    83   128      0   0   0
    83    82      0   0   0
    83    84      0   0   0
    84    39      0   0   0
    84    42      0   0   0
    84    81      0   0   0
    84    87      0   0   0
    84   126      0   0   0
    84   129      0   0   0
    84    83      0   0   0
    84    82      0   0   1
    85    40      0   0   0
    85    43      0   0   0
    85    82      0   0   0
    85    88      0   0   0
    85   127      0   0   0
    85   130      0   0   0
    85    86      0   0   0
    85    87      0   0  -1
    86    41      0   0   0
    86    44      0   0   0
    86    83      0   0   0
    86    89      0   0   0
    86   128      0   0   0
    86   131      0   0   0
    86    85      0   0   0
    86    87      0   0   0
    87    42      0   0   0
    87    45      0   0   0
    87    84      0   0   0
    87    90      0   0   0
    87   129      0   0   0
    87   132      0   0   0
    87    86      0   0   0
    87    85      0   0   1
    88    43      0   0   0
    88    85      0   0   0
    88   130      0   0   0
    88   133      0   0   0
    88     1      0   1   0
    88    46      0   1   0
    88    89      0   0   0
    88    90      0   0  -1
    89    44      0   0   0
    89    86      0   0   0
    89   131      0   0   0
    89   134      0   0   0
    89     2      0   1   0
    89    47      0   1   0
    89    88      0   0   0
    89    90      0   0   0
    90    45      0   0   0
    90    87      0   0   0
    90   132      0   0   0
    90   135      0   0   0
    90     3      0   1   0
    90    48      0   1   0
    90    89      0   0   0
    90    88      0   0   1
    91    46      0   0   0
    91    49      0   0   0
    91    94      0   0   0
    91   136      0   0   0
    91   133      0  -1   0
    91   178      0  -1   0
    91    92      0   0   0
    91    93      0   0  -1
    92    47      0   0   0
    92    50      0   0   0
    92    95      0   0   0
    92   137      0   0   0
    92   134      0  -1   0
    92   179      0  -1   0
    92    91      0   0   0
    92    93      0   0   0
    93    48      0   0   0
    93    51      0   0   0
    93    96      0   0   0
    93   138      0   0   0
    93   135      0  -1   0
    93   180      0  -1   0
    93    92      0   0   0
    93    91      0   0   1
    94    49      0   0   0
    94    52      0   0   0
    94    91      0   0   0
    94    97      0   0   0
    94   136      0   0   0
    94   139      0   0   0
    94    95      0   0   0
    94    96      0   0  -1
    95    50      0   0   0
    95    53      0   0   0
    95    92      0   0   0
    95    98      0   0   0
    95   137      0   0   0
    95   140      0   0   0
    95    94      0   0   0
    95    96      0   0   0
    96    51      0   0   0
    96    54      0   0   0
    96    93      0   0   0
    96    99      0   0   0
    96   138      0   0   0
    96   141      0   0   0
    96    95      0   0   0
    96    94      0   0   1
    97    52      0   0   0
    97    55      0   0   0
    97    94      0   0   0
    97   100      0   0   0
    97   139      0   0   0
    97   142      0   0   0
    97    98      0   0   0
    97    99      0   0  -1
    98    53      0   0   0
    98    56      0   0   0
    98    95      0   0   0
    98   101      0   0   0
    98   140      0   0   0
    98   143      0   0   0
    98    97      0   0   0
    98    99      0   0   0
    99    54      0   0   0
    99    57      0   0   0
    99    96      0   0   0
    99   102      0   0   0
    99   141      0   0   0
    99   144      0   0   0
    99    98      0   0   0
    99    97      0   0   1
   100    55      0   0   0
   100    58      0   0   0
   100    97      0   0   0
   100   103      0   0   0
   100   142      0   0   0
   100   145      0   0   0
   100   101      0   0   0
   100   102      0   0  -1
   101    56      0   0   0
   101    59      0   0   0
   101    98      0   0   0
   101   104      0   0   0
   101   143      0   0   0
   101   146      0   0   0
   101   100      0   0   0
   101   102      0   0   0
   102    57      0   0   0
   102    60      0   0   0
   102    99      0   0   0
   102   105      0   0   0
   102   144      0   0   0
   102   147      0   0   0
   102   101      0   0   0
   102   100      0   0   1
   103    58      0   0   0
   103    61      0   0   0
   103   100      0   0   0
   103   106      0   0   0
   103   145      0   0   0
   103   148      0   0   0
   103   104      0   0   0
   103   105      0   0  -1
   104    59      0   0   0
   104    62      0   0   0
   104   101      0   0   0
   104   107      0   0   0
   104   146      0   0   0
   104   149      0   0   0
   104   103      0   0   0
   104   105      0   0   0
   105    60      0   0   0
   105    63      0   0   0
   105   102      0   0   0
   105   108      0   0   0
   105   147      0   0   0
   105   150      0   0   0
   105   104      0   0   0
   105   103      0   0   1
   106    61      0   0   0
   106    64      0   0   0
   106   103      0   0   0
   106   109      0   0   0
   106   148      0   0   0
   106   151      0   0   0
   106   107      0   0   0
   106   108      0   0  -1
   107    62      0   0   0
   107    65      0   0   0
   107   104      0   0   0
   107   110      0   0   0
   107   149      0   0   0
   107   152      0   0   0
   107   106      0   0   0
   107   108      0   0   0
   108    63      0   0   0
   108    66      0   0   0
   108   105      0   0   0
   108   111      0   0   0
   108   150      0   0   0
   108   153      0   0   0
   108   107      0   0   0
   108   106      0   0   1
   109    64      0   0   0
   109    67      0   0   0
   109   106      0   0   0
   109   112      0   0   0
   109   151      0   0   0
   109   154      0   0   0
   109   110      0   0   0
   109   111      0   0  -1
   110    65      0   0   0
   110    68      0   0   0
   110   107      0   0   0
   110   113      0   0   0
   110   152      0   0   0
   110   155      0   0   0
   110   109      0   0   0
   110   111      0   0   0
   111    66      0   0   0
   111    69      0   0   0
   111   108      0   0   0
   111   114      0   0   0
   111   153      0   0   0
   111   156      0   0   0
   111   110      0   0   0
   111   109      0   0   1
   112    67      0   0   0
   112    70      0   0   0
   112   109      0   0   0
   112   115      0   0   0
   112   154      0   0   0
   112   157      0   0   0
   112   113      0   0   0
   112   114      0   0  -1
   113    68      0   0   0
   113    71      0   0   0
   113   110      0   0   0
   113   116      0   0   0
   113   155      0   0   0
   113   158      0   0   0
   113   112      0   0   0
   113   114      0   0   0
   114    69      0   0   0
   114    72      0   0   0
   114   111      0   0   0
   114   117      0   0   0
   114   156      0   0   0
   114   159      0   0   0
   114   113      0   0   0
   114   112      0   0   1
   115    70      0   0   0
   115    73      0   0   0
   115   112      0   0   0
   115   118      0   0   0
   115   157      0   0   0
   115   160      0   0   0
   115   116      0   0   0
   115   117      0   0  -1
   116    71      0   0   0
   116    74      0   0   0
   116   113      0   0   0
   116   119      0   0   0
   116   158      0   0   0
   116   161      0   0   0
   116   115      0   0   0
   116   117      0   0   0
   117    72      0   0   0
   117    75      0   0   0
   117   114      0   0   0
   117   120      0   0   0
   117   159      0   0   0
   117   162      0   0   0
   117   116      0   0   0
   117   115      0   0   1
   118    73      0   0   0
   118    76      0   0   0
   118   115      0   0   0
   118   121      0   0   0
   118   160      0   0   0
   118   163      0   0   0
   118   119      0   0   0
   118   120      0   0  -1
   119    74      0   0   0
   119    77      0   0   0
   119   116      0   0   0
   119   122      0   0   0
   119   161      0   0   0
   119   164      0   0   0
   119   118      0   0   0
   119   120      0   0   0
   120    75      0   0   0
   120    78      0   0   0
   120   117      0   0   0
   120   123      0   0   0
   120   162      0   0   0
   120   165      0   0   0
   120   119      0   0   0
   120   118      0   0   1
   121    76      0   0   0
   121    79      0   0   0
   121   118      0   0   0
   121   124      0   0   0
   121   163      0   0   0
   121   166      0   0   0
   121   122      0   0   0
   121   123      0   0  -1
   122    77      0   0   0
   122    80      0   0   0
   122   119      0   0   0
   122   125      0   0   0
   122   164      0   0   0
   122   167      0   0   0
   122   121      0   0   0
   122   123      0   0   0
   123    78      0   0   0
   123    81      0   0   0
   123   120      0   0   0
   123   126      0   0   0
   123   165      0   0   0
   123   168      0   0   0
   123   122      0   0   0
   123   121      0   0   1
   124    79      0   0   0
   124    82      0   0   0
   124   121      0   0   0
   124   127      0   0   0
   124   166      0   0   0
   124   169      0   0   0
   124   125      0   0   0
   124   126      0   0  -1
   125    80      0   0   0
   125    83      0   0   0
   125   122      0   0   0
   125   128      0   0   0
   125   167      0   0   0
   125   170      0   0   0
   125   124      0   0   0
   125   126      0   0   0
   126    81      0   0   0
   126    84      0   0   0
   126   123      0   0   0
   126   129      0   0   0
   126   168      0   0   0
   126   171      0   0   0
   126   125      0   0   0
   126   124      0   0   1
   127    82      0   0   0
   127    85      0   0   0
   127   124      0   0   0
   127   130      0   0   0
   127   169      0   0   0
   127   172      0   0   0
   127   128      0   0   0
   127   129      0   0  -1
   128    83      0   0   0
   128    86      0   0   0
   128   125      0   0   0
   128   131      0   0   0
   128   170      0   0   0
   128   173      0   0   0
   128   127      0   0   0
   128   129      0   0   0
   129    84      0   0   0
   129    87      0   0   0
   129   126      0   0   0
   129   132      0   0   0
   129   171      0   0   0
   129   174      0   0   0
   129   128      0   0   0
   129   127      0   0   1
   130    85      0   0   0
   130    88      0   0   0
   130   127      0   0   0
   130   133      0   0   0
   130   172      0   0   0
   130   175      0   0   0
   130   131      0   0   0
   130   132      0   0  -1
   131    86      0   0   0
   131    89      0   0   0
   131   128      0   0   0
   131   134      0   0   0
   131   173      0   0   0
   131   176      0   0   0
   131   130      0   0   0
   131   132      0   0   0
   132    87      0   0   0
   132    90      0   0   0
   132   129      0   0   0
   132   135      0   0   0
   132   174      0   0   0
   132   177      0   0   0
   132   131      0   0   0
   132   130      0   0   1
   133    88      0   0   0
   133   130      0   0   0
   133   175      0   0   0
   133   178      0   0   0
   133    46      0   1   0
   133    91      0   1   0
   133   134      0   0   0
   133   135      0   0  -1
   134    89      0   0   0
   134   131      0   0   0
   134   176      0   0   0
   134   179      0   0   0
   134    47      0   1   0
   134    92      0   1   0
   134   133      0   0   0
   134   135      0   0   0
   135    90      0   0   0
   135   132      0   0   0
   135   177      0   0   0
   135   180      0   0   0
   135    48      0   1   0
   135    93      0   1   0
   135   134      0   0   0
   135   133      0   0   1
   136    91      0   0   0
   136    94      0   0   0
   136   139      0   0   0
   136   181      0   0   0
   136   178      0  -1   0
   136   223      0  -1   0
   136   137      0   0   0
   136   138      0   0  -1
   137    92      0   0   0
   137    95      0   0   0
   137   140      0   0   0
   137   182      0   0   0
   137   179      0  -1   0
   137   224      0  -1   0
   137   136      0   0   0
   137   138      0   0   0
   138    93      0   0   0
   138    96      0   0   0
   138   141      0   0   0
   138   183      0   0   0
   138   180      0  -1   0
   138   225      0  -1   0
   138   137      0   0   0
   138   136      0   0   1
   139    94      0   0   0
   139    97      0   0   0
   139   136      0   0   0
   139   142      0   0   0
   139   181      0   0   0
   139   184      0   0   0
   139   140      0   0   0
   139   141      0   0  -1
   140    95      0   0   0
   140    98      0   0   0
   140   137      0   0   0
   140   143      0   0   0
   140   182      0   0   0
   140   185      0   0   0
   140   139      0   0   0
   140   141      0   0   0
   141    96      0   0   0
   141    99      0   0   0
   141   138      0   0   0
   141   144      0   0   0
   141   183      0   0   0
   141   186      0   0   0
   141   140      0   0   0
   141   139      0   0   1
   142    97      0   0   0
   142   100      0   0   0
   142   139      0   0   0
   142   145      0   0   0
   142   184      0   0   0
   142   187      0   0   0
   142   143      0   0   0
   142   144      0   0  -1
   143    98      0   0   0
   143   101      0   0   0
   143   140      0   0   0
   143   146      0   0   0
   143   185      0   0   0
   143   188      0   0   0
   143   142      0   0   0
   143   144      0   0   0
   144    99      0   0   0
   144   102      0   0   0
   144   141      0   0   0
   144   147      0   0   0
   144   186      0   0   0
   144   189      0   0   0
   144   143      0   0   0
   144   142      0   0   1
   145   100      0   0   0
   145   103      0   0   0
   145   142      0   0   0
   145   148      0   0   0
   145   187      0   0   0
   145   190      0   0   0
   145   146      0   0   0
   145   147      0   0  -1
   146   101      0   0   0
   146   104      0   0   0
   146   143      0   0   0
   146   149      0   0   0
   146   188      0   0   0
   146   191      0   0   0
   146   145      0   0   0
   146   147      0   0   0
   147   102      0   0   0
   147   105      0   0   0
   147   144      0   0   0
   147   150      0   0   0
   147   189      0   0   0
   147   192      0   0   0
   147   146      0   0   0
   147   145      0   0   1
   148   103      0   0   0
   148   106      0   0   0
   148   145      0   0   0
   148   151      0   0   0
   148   190      0   0   0
   148   193      0   0   0
   148   149      0   0   0
   148   150      0   0  -1
   149   104      0   0   0
   149   107      0   0   0
   149   146      0   0   0
   149   152      0   0   0
   149   191      0   0   0
   149   194      0   0   0
   149   148      0   0   0
   149   150      0   0   0
   150   105      0   0   0
   150   108      0   0   0
   150   147      0   0   0
   150   153      0   0   0
   150   192      0   0   0
   150   195      0   0   0
   150   149      0   0   0
   150   148      0   0   1
   151   106      0   0   0
   151   109      0   0   0
   151   148      0   0   0
   151   154      0   0   0
   151   193      0   0   0
   151   196      0   0   0
   151   152      0   0   0
   151   153      0   0  -1
   152   107      0   0   0
   152   110      0   0   0
   152   149      0   0   0
   152   155      0   0   0
   152   194      0   0   0
   152   197      0   0   0
   152   151      0   0   0
   152   153      0   0   0
   153   108      0   0   0
   153   111      0   0   0
   153   150      0   0   0
   153   156      0   0   0
   153   195      0   0   0
   153   198      0   0   0
   153   152      0   0   0
   153   151      0   0   1
   154   109      0   0   0
   154   112      0   0   0
   154   151      0   0   0
   154   157      0   0   0
   154   196      0   0   0
   154   199      0   0   0
   154   155      0   0   0
   154   156      0   0  -1
   155   110      0   0   0
   155   113      0   0   0
   155   152      0   0   0
   155   158      0   0   0
   155   197      0   0   0
   155   200      0   0   0
   155   154      0   0   0
   155   156      0   0   0
   156   111      0   0   0
   156   114      0   0   0
   156   153      0   0   0
   156   159      0   0   0
   156   198      0   0   0
   156   201      0   0   0
   156   155      0   0   0
   156   154      0   0   1
   157   112      0   0   0
   157   115      0   0   0
   157   154      0   0   0
   157   160      0   0   0
   157   199      0   0   0
   157   202      0   0   0
   157   158      0   0   0
   157   159      0   0  -1
   158   113      0   0   0
   158   116      0   0   0
   158   155      0   0   0
   158   161      0   0   0
   158   200      0   0   0
   158   203      0   0   0
   158   157      0   0   0
   158   159      0   0   0
   159   114      0   0   0
   159   117      0   0   0
   159   156      0   0   0
   159   162      0   0   0
   159   201      0   0   0
   159   204      0   0   0
   159   158      0   0   0
   159   157      0   0   1
   160   115      0   0   0
   160   118      0   0   0
   160   157      0   0   0
   160   163      0   0   0
   160   202      0   0   0
   160   205      0   0   0
   160   161      0   0   0
   160   162      0   0  -1
   161   116      0   0   0
   161   119      0   0   0
   161   158      0   0   0
   161   164      0   0   0
   161   203      0   0   0
   161   206      0   0   0
   161   160      0   0   0
   161   162      0   0   0
   162   117      0   0   0
   162   120      0   0   0
   162   159      0   0   0
   162   165      0   0   0
   162   204      0   0   0
   162   207      0   0   0
   162   161      0   0   0
   162   160      0   0   1
   163   118      0   0   0
   163   121      0   0   0
   163   160      0   0   0
   163   166      0   0   0
   163   205      0   0   0
   163   208      0   0   0
   163   164      0   0   0
   163   165      0   0  -1
   164   119      0   0   0
   164   122      0   0   0
   164   161      0   0   0
   164   167      0   0   0
   164   206      0   0   0
   164   209      0   0   0
   164   163      0   0   0
   164   165      0   0   0
   165   120      0   0   0
   165   123      0   0   0
   165   162      0   0   0
   165   168      0   0   0
   165   207      0   0   0
   165   210      0   0   0
   165   164      0   0   0
   165   163      0   0   1
   166   121      0   0   0
   166   124      0   0   0
   166   163      0   0   0
   166   169      0   0   0
   166   208      0   0   0
   166   211      0   0   0
   166   167      0   0   0
   166   168      0   0  -1
   167   122      0   0   0
   167   125      0   0   0
   167   164      0   0   0
   167   170      0   0   0
   167   209      0   0   0
   167   212      0   0   0
   167   166      0   0   0
   167   168      0   0   0
   168   123      0   0   0
   168   126      0   0   0
   168   165      0   0   0
   168   171      0   0   0
   168   210      0   0   0
   168   213      0   0   0
   168   167      0   0   0
   168   166      0   0   1
   169   124      0   0   0
   169   127      0   0   0
   169   166      0   0   0
   169   172      0   0   0
   169   211      0   0   0
   169   214      0   0   0
   169   170      0   0   0
   169   171      0   0  -1
   170   125      0   0   0
   170   128      0   0   0
   170   167      0   0   0
   170   173      0   0   0
   170   212      0   0   0
   170   215      0   0   0
   170   169      0   0   0
   170   171      0   0   0
   171   126      0   0   0
   171   129      0   0   0
   171   168      0   0   0
   171   174      0   0   0
   171   213      0   0   0
   171   216      0   0   0
   171   170      0   0   0
   171   169      0   0   1
   172   127      0   0   0
   172   130      0   0   0
   172   169      0   0   0
   172   175      0   0   0
   172   214      0   0   0
   172   217      0   0   0
   172   173      0   0   0
   172   174      0   0  -1
   173   128      0   0   0
   173   131      0   0   0
   173   170      0   0   0
   173   176      0   0   0
   173   215      0   0   0
   173   218      0   0   0
   173   172      0   0   0
   173   174      0   0   0
   174   129      0   0   0
   174   132      0   0   0
   174   171      0   0   0
   174   177      0   0   0
   174   216      0   0   0
   174   219      0   0   0
   174   173      0   0   0
   174   172      0   0   1
   175   130      0   0   0
   175   133      0   0   0
   175   172      0   0   0
   175   178      0   0   0
   175   217      0   0   0
   175   220      0   0   0
   175   176      0   0   0
   175   177      0   0  -1
   176   131      0   0   0
   176   134      0   0   0
   176   173      0   0   0
   176   179      0   0   0
   176   218      0   0   0
   176   221      0   0   0
   176   175      0   0   0
   176   177      0   0   0
   177   132      0   0   0
   177   135      0   0   0
   177   174      0   0   0
   177   180      0   0   0
   177   219      0   0   0
   177   222      0   0   0
   177   176      0   0   0
   177   175      0   0   1
   178   133      0   0   0
   178   175      0   0   0
   178   220      0   0   0
   178   223      0   0   0
   178    91      0   1   0
   178   136      0   1   0
   178   179      0   0   0
   178   180      0   0  -1
   179   134      0   0   0
   179   176      0   0   0
   179   221      0   0   0
   179   224      0   0   0
   179    92      0   1   0
   179   137      0   1   0
   179   178      0   0   0
   179   180      0   0   0
   180   135      0   0   0
   180   177      0   0   0
   180   222      0   0   0
   180   225      0   0   0
   180    93      0   1   0
   180   138      0   1   0
   180   179      0   0   0
   180   178      0   0   1
   181   136      0   0   0
   181   139      0   0   0
   181   184      0   0   0
   181   226      0   0   0
   181   223      0  -1   0
   181   268      0  -1   0
   181   182      0   0   0
   181   183      0   0  -1
   182   137      0   0   0
   182   140      0   0   0
   182   185      0   0   0
   182   227      0   0   0
   182   224      0  -1   0
   182   269      0  -1   0
   182   181      0   0   0
   182   183      0   0   0
   183   138      0   0   0
   183   141      0   0   0
   183   186      0   0   0
   183   228      0   0   0
   183   225      0  -1   0
   183   270      0  -1   0
   183   182      0   0   0
   183   181      0   0   1
   184   139      0   0   0
   184   142      0   0   0
   184   181      0   0   0
   184   187      0   0   0
   184   226      0   0   0
   184   229      0   0   0
   184   185      0   0   0
   184   186      0   0  -1
   185   140      0   0   0
   185   143      0   0   0
   185   182      0   0   0
   185   188      0   0   0
   185   227      0   0   0
   185   230      0   0   0
   185   184      0   0   0
   185   186      0   0   0
   186   141      0   0   0
   186   144      0   0   0
   186   183      0   0   0
   186   189      0   0   0
   186   228      0   0   0
   186   231      0   0   0
   186   185      0   0   0
   186   184      0   0   1
   187   142      0   0   0
   187   145      0   0   0
   187   184      0   0   0
   187   190      0   0   0
   187   229      0   0   0
   187   232      0   0   0
   187   188      0   0   0
   187   189      0   0  -1
   188   143      0   0   0
   188   146      0   0   0
   188   185      0   0   0
   188   191      0   0   0
   188   230      0   0   0
   188   233      0   0   0
   188   187      0   0   0
   188   189      0   0   0
   189   144      0   0   0
   189   147      0   0   0
   189   186      0   0   0
   189   192      0   0   0
   189   231      0   0   0
   189   234      0   0   0
   189   188      0   0   0
   189   187      0   0   1
   190   145      0   0   0
   190   148      0   0   0
   190   187      0   0   0
   190   193      0   0   0
   190   232      0   0   0
   190   235      0   0   0
   190   191      0   0   0
   190   192      0   0  -1
   191   146      0   0   0
   191   149      0   0   0
   191   188      0   0   0
   191   194      0   0   0
   191   233      0   0   0
   191   236      0   0   0
   191   190      0   0   0
   191   192      0   0   0
   192   147      0   0   0
   192   150      0   0   0
   192   189      0   0   0
   192   195      0   0   0
   192   234      0   0   0
   192   237      0   0   0
   192   191      0   0   0
   192   190      0   0   1
   193   148      0   0   0
   193   151      0   0   0
   193   190      0   0   0
   193   196      0   0   0
   193   235      0   0   0
   193   238      0   0   0
   193   194      0   0   0
   193   195      0   0  -1
   194   149      0   0   0
   194   152      0   0   0
   194   191      0   0   0
   194   197      0   0   0
   194   236      0   0   0
   194   239      0   0   0
   194   193      0   0   0
   194   195      0   0   0
   195   150      0   0   0
   195   153      0   0   0
   195   192      0   0   0
   195   198      0   0   0
   195   237      0   0   0
   195   240      0   0   0
   195   194      0   0   0
   195   193      0   0   1
   196   151      0   0   0
   196   154      0   0   0
   196   193      0   0   0
   196   199      0   0   0
   196   238      0   0   0
   196   241      0   0   0
   196   197      0   0   0
   196   198      0   0  -1
   197   152      0   0   0
   197   155      0   0   0
   197   194      0   0   0
   197   200      0   0   0
   197   239      0   0   0
   197   242      0   0   0
   197   196      0   0   0
   197   198      0   0   0
   198   153      0   0   0
   198   156      0   0   0
   198   195      0   0   0
   198   201      0   0   0
   198   240      0   0   0
   198   243      0   0   0
   198   197      0   0   0
   198   196      0   0   1
   199   154      0   0   0
   199   157      0   0   0
   199   196      0   0   0
   199   202      0   0   0
   199   241      0   0   0
   199   244      0   0   0
   199   200      0   0   0
   199   201      0   0  -1
   200   155      0   0   0
   200   158      0   0   0
   200   197      0   0   0
   200   203      0   0   0
   200   242      0   0   0
   200   245      0   0   0
   200   199      0   0   0
   200   201      0   0   0
   201   156      0   0   0
   201   159      0   0   0
   201   198      0   0   0
   201   204      0   0   0
   201   243      0   0   0
   201   246      0   0   0
   201   200      0   0   0
   201   199      0   0   1
   202   157      0   0   0
   202   160      0   0   0
   202   199      0   0   0
   202   205      0   0   0
   202   244      0   0   0
   202   247      0   0   0
   202   203      0   0   0
   202   204      0   0  -1
   203   158      0   0   0
   203   161      0   0   0
   203   200      0   0   0
   203   206      0   0   0
   203   245      0   0   0
   203   248      0   0   0
   203   202      0   0   0
   203   204      0   0   0
   204   159      0   0   0
   204   162      0   0   0
   204   201      0   0   0
   204   207      0   0   0
   204   246      0   0   0
   204   249      0   0   0
   204   203      0   0   0
   204   202      0   0   1
   205   160      0   0   0
   205   163      0   0   0
   205   202      0   0   0
   205   208      0   0   0
   205   247      0   0   0
   205   250      0   0   0
   205   206      0   0   0
   205   207      0   0  -1
   206   161      0   0   0
   206   164      0   0   0
   206   203      0   0   0
   206   209      0   0   0
   206   248      0   0   0
   206   251      0   0   0
   206   205      0   0   0
   206   207      0   0   0
   207   162      0   0   0
   207   165      0   0   0
   207   204      0   0   0
   207   210      0   0   0
   207   249      0   0   0
   207   252      0   0   0
   207   206      0   0   0
   207   205      0   0   1
   208   163      0   0   0
   208   166      0   0   0
   208   205      0   0   0
   208   211      0   0   0
   208   250      0   0   0
   208   253      0   0   0
   208   209      0   0   0
   208   210      0   0  -1
   209   164      0   0   0
   209   167      0   0   0
   209   206      0   0   0
   209   212      0   0   0
   209   251      0   0   0
   209   254      0   0   0
   209   208      0   0   0
   209   210      0   0   0
   210   165      0   0   0
   210   168      0   0   0
   210   207      0   0   0
   210   213      0   0   0
   210   252      0   0   0
   210   255      0   0   0
   210   209      0   0   0
   210   208      0   0   1
   211   166      0   0   0
   211   169      0   0   0
   211   208      0   0   0
   211   214      0   0   0
   211   253      0   0   0
   211   256      0   0   0
   211   212      0   0   0
   211   213      0   0  -1
   212   167      0   0   0
   212   170      0   0   0
   212   209      0   0   0
   212   215      0   0   0
   212   254      0   0   0
   212   257      0   0   0
   212   211      0   0   0
   212   213      0   0   0
   213   168      0   0   0
   213   171      0   0   0
   213   210      0   0   0
   213   216      0   0   0
   213   255      0   0   0
   213   258      0   0   0
   213   212      0   0   0
   213   211      0   0   1
   214   169      0   0   0
   214   172      0   0   0
   214   211      0   0   0
   214   217      0   0   0
   214   256      0   0   0
   214   259      0   0   0
   214   215      0   0   0
   214   216      0   0  -1
   215   170      0   0   0
   215   173      0   0   0
   215   212      0   0   0
   215   218      0   0   0
   215   257      0   0   0
   215   260      0   0   0
   215   214      0   0   0
   215   216      0   0   0
   216   171      0   0   0
   216   174      0   0   0
   216   213      0   0   0
   216   219      0   0   0
   216   258      0   0   0
   216   261      0   0   0
   216   215      0   0   0
   216   214      0   0   1
   217   172      0   0   0
   217   175      0   0   0
   217   214      0   0   0
   217   220      0   0   0
   217   259      0   0   0
   217   262      0   0   0
   217   218      0   0   0
   217   219      0   0  -1
   218   173      0   0   0
   218   176      0   0   0
   218   215      0   0   0
   218   221      0   0   0
   218   260      0   0   0
   218   263      0   0   0
   218   217      0   0   0
   218   219      0   0   0
   219   174      0   0   0
   219   177      0   0   0
   219   216      0   0   0
   219   222      0   0   0
   219   261      0   0   0
   219   264      0   0   0
   219   218      0   0   0
   219   217      0   0   1
   220   175      0   0   0
   220   178      0   0   0
   220   217      0   0   0
   220   223      0   0   0
   220   262      0   0   0
   220   265      0   0   0
   220   221      0   0   0
   220   222      0   0  -1
[...]
   587   542      0   0   0
   587   545      0   0   0
   587   590      0   0   0
   587   632      0   0   0
   587   629      0  -1   0
   587   674      0  -1   0
   587   586      0   0   0
   587   588      0   0   0
   588   543      0   0   0
   588   546      0   0   0
   588   591      0   0   0
   588   633      0   0   0
   588   630      0  -1   0
   588   675      0  -1   0
   588   587      0   0   0
   588   586      0   0   1
   589   544      0   0   0
   589   547      0   0   0
   589   586      0   0   0
   589   592      0   0   0
   589   631      0   0   0
   589   634      0   0   0
   589   590      0   0   0
   589   591      0   0  -1
   590   545      0   0   0
   590   548      0   0   0
   590   587      0   0   0
   590   593      0   0   0
   590   632      0   0   0
   590   635      0   0   0
   590   589      0   0   0
   590   591      0   0   0
   591   546      0   0   0
   591   549      0   0   0
   591   588      0   0   0
   591   594      0   0   0
   591   633      0   0   0
   591   636      0   0   0
   591   590      0   0   0
   591   589      0   0   1
   592   547      0   0   0
   592   550      0   0   0
   592   589      0   0   0
   592   595      0   0   0
   592   634      0   0   0
   592   637      0   0   0
   592   593      0   0   0
   592   594      0   0  -1
   593   548      0   0   0
   593   551      0   0   0
   593   590      0   0   0
   593   596      0   0   0
   593   635      0   0   0
   593   638      0   0   0
   593   592      0   0   0
   593   594      0   0   0
   594   549      0   0   0
   594   552      0   0   0
   594   591      0   0   0
   594   597      0   0   0
   594   636      0   0   0
   594   639      0   0   0
   594   593      0   0   0
   594   592      0   0   1
   595   550      0   0   0
   595   553      0   0   0
   595   592      0   0   0
   595   598      0   0   0
   595   637      0   0   0
   595   640      0   0   0
   595   596      0   0   0
   595   597      0   0  -1
   596   551      0   0   0
   596   554      0   0   0
   596   593      0   0   0
   596   599      0   0   0
   596   638      0   0   0
   596   641      0   0   0
   596   595      0   0   0
   596   597      0   0   0
   597   552      0   0   0
   597   555      0   0   0
   597   594      0   0   0
   597   600      0   0   0
   597   639      0   0   0
   597   642      0   0   0
   597   596      0   0   0
   597   595      0   0   1
   598   553      0   0   0
   598   556      0   0   0
   598   595      0   0   0
   598   601      0   0   0
   598   640      0   0   0
   598   643      0   0   0
   598   599      0   0   0
   598   600      0   0  -1
   599   554      0   0   0
   599   557      0   0   0
   599   596      0   0   0
   599   602      0   0   0
   599   641      0   0   0
   599   644      0   0   0
   599   598      0   0   0
   599   600      0   0   0
   600   555      0   0   0
   600   558      0   0   0
   600   597      0   0   0
   600   603      0   0   0
   600   642      0   0   0
   600   645      0   0   0
   600   599      0   0   0
   600   598      0   0   1
   601   556      0   0   0
   601   559      0   0   0
   601   598      0   0   0
   601   604      0   0   0
   601   643      0   0   0
   601   646      0   0   0
   601   602      0   0   0
   601   603      0   0  -1
   602   557      0   0   0
   602   560      0   0   0
   602   599      0   0   0
   602   605      0   0   0
   602   644      0   0   0
   602   647      0   0   0
   602   601      0   0   0
   602   603      0   0   0
   603   558      0   0   0
   603   561      0   0   0
   603   600      0   0   0
   603   606      0   0   0
   603   645      0   0   0
   603   648      0   0   0
   603   602      0   0   0
   603   601      0   0   1
   604   559      0   0   0
   604   562      0   0   0
   604   601      0   0   0
   604   607      0   0   0
   604   646      0   0   0
   604   649      0   0   0
   604   605      0   0   0
   604   606      0   0  -1
   605   560      0   0   0
   605   563      0   0   0
   605   602      0   0   0
   605   608      0   0   0
   605   647      0   0   0
   605   650      0   0   0
   605   604      0   0   0
   605   606      0   0   0
   606   561      0   0   0
   606   564      0   0   0
   606   603      0   0   0
   606   609      0   0   0
   606   648      0   0   0
   606   651      0   0   0
   606   605      0   0   0
   606   604      0   0   1
   607   562      0   0   0
   607   565      0   0   0
   607   604      0   0   0
   607   610      0   0   0
   607   649      0   0   0
   607   652      0   0   0
   607   608      0   0   0
   607   609      0   0  -1
   608   563      0   0   0
   608   566      0   0   0
   608   605      0   0   0
   608   611      0   0   0
   608   650      0   0   0
   608   653      0   0   0
   608   607      0   0   0
   608   609      0   0   0
   609   564      0   0   0
   609   567      0   0   0
   609   606      0   0   0
   609   612      0   0   0
   609   651      0   0   0
   609   654      0   0   0
   609   608      0   0   0
   609   607      0   0   1
   610   565      0   0   0
   610   568      0   0   0
   610   607      0   0   0
   610   613      0   0   0
   610   652      0   0   0
   610   655      0   0   0
   610   611      0   0   0
   610   612      0   0  -1
   611   566      0   0   0
   611   569      0   0   0
   611   608      0   0   0
   611   614      0   0   0
   611   653      0   0   0
   611   656      0   0   0
   611   610      0   0   0
   611   612      0   0   0
   612   567      0   0   0
   612   570      0   0   0
   612   609      0   0   0
   612   615      0   0   0
   612   654      0   0   0
   612   657      0   0   0
   612   611      0   0   0
   612   610      0   0   1
   613   568      0   0   0
   613   571      0   0   0
   613   610      0   0   0
   613   616      0   0   0
   613   655      0   0   0
   613   658      0   0   0
   613   614      0   0   0
   613   615      0   0  -1
   614   569      0   0   0
   614   572      0   0   0
   614   611      0   0   0
   614   617      0   0   0
   614   656      0   0   0
   614   659      0   0   0
   614   613      0   0   0
   614   615      0   0   0
   615   570      0   0   0
   615   573      0   0   0
   615   612      0   0   0
   615   618      0   0   0
   615   657      0   0   0
   615   660      0   0   0
   615   614      0   0   0
   615   613      0   0   1
   616   571      0   0   0
   616   574      0   0   0
   616   613      0   0   0
   616   619      0   0   0
   616   658      0   0   0
   616   661      0   0   0
   616   617      0   0   0
   616   618      0   0  -1
   617   572      0   0   0
   617   575      0   0   0
   617   614      0   0   0
   617   620      0   0   0
   617   659      0   0   0
   617   662      0   0   0
   617   616      0   0   0
   617   618      0   0   0
   618   573      0   0   0
   618   576      0   0   0
   618   615      0   0   0
   618   621      0   0   0
   618   660      0   0   0
   618   663      0   0   0
   618   617      0   0   0
   618   616      0   0   1
   619   574      0   0   0
   619   577      0   0   0
   619   616      0   0   0
   619   622      0   0   0
   619   661      0   0   0
   619   664      0   0   0
   619   620      0   0   0
   619   621      0   0  -1
   620   575      0   0   0
   620   578      0   0   0
   620   617      0   0   0
   620   623      0   0   0
   620   662      0   0   0
   620   665      0   0   0
   620   619      0   0   0
   620   621      0   0   0
   621   576      0   0   0
   621   579      0   0   0
   621   618      0   0   0
   621   624      0   0   0
   621   663      0   0   0
   621   666      0   0   0
   621   620      0   0   0
   621   619      0   0   1
   622   577      0   0   0
   622   580      0   0   0
   622   619      0   0   0
   622   625      0   0   0
   622   664      0   0   0
   622   667      0   0   0
   622   623      0   0   0
   622   624      0   0  -1
   623   578      0   0   0
   623   581      0   0   0
   623   620      0   0   0
   623   626      0   0   0
   623   665      0   0   0
   623   668      0   0   0
   623   622      0   0   0
   623   624      0   0   0
   624   579      0   0   0
   624   582      0   0   0
   624   621      0   0   0
   624   627      0   0   0
   624   666      0   0   0
   624   669      0   0   0
   624   623      0   0   0
   624   622      0   0   1
   625   580      0   0   0
   625   583      0   0   0
   625   622      0   0   0
   625   628      0   0   0
   625   667      0   0   0
   625   670      0   0   0
   625   626      0   0   0
   625   627      0   0  -1
   626   581      0   0   0
   626   584      0   0   0
   626   623      0   0   0
   626   629      0   0   0
   626   668      0   0   0
   626   671      0   0   0
   626   625      0   0   0
   626   627      0   0   0
   627   582      0   0   0
   627   585      0   0   0
   627   624      0   0   0
   627   630      0   0   0
   627   669      0   0   0
   627   672      0   0   0
   627   626      0   0   0
   627   625      0   0   1
   628   583      0   0   0
   628   625      0   0   0
   628   670      0   0   0
   628   673      0   0   0
   628   541      0   1   0
   628   586      0   1   0
   628   629      0   0   0
   628   630      0   0  -1
   629   584      0   0   0
   629   626      0   0   0
   629   671      0   0   0
   629   674      0   0   0
   629   542      0   1   0
   629   587      0   1   0
   629   628      0   0   0
   629   630      0   0   0
   630   585      0   0   0
   630   627      0   0   0
   630   672      0   0   0
   630   675      0   0   0
   630   543      0   1   0
   630   588      0   1   0
   630   629      0   0   0
   630   628      0   0   1
   631   586      0   0   0
   631   589      0   0   0
   631   634      0   0   0
   631     1      1   0   0
   631    43      1  -1   0
   631   673      0  -1   0
   631   632      0   0   0
   631   633      0   0  -1
   632   587      0   0   0
   632   590      0   0   0
   632   635      0   0   0
   632     2      1   0   0
   632    44      1  -1   0
   632   674      0  -1   0
   632   631      0   0   0
   632   633      0   0   0
   633   588      0   0   0
   633   591      0   0   0
   633   636      0   0   0
   633     3      1   0   0
   633    45      1  -1   0
   633   675      0  -1   0
   633   632      0   0   0
   633   631      0   0   1
   634   589      0   0   0
   634   592      0   0   0
   634   631      0   0   0
   634   637      0   0   0
   634     1      1   0   0
   634     4      1   0   0
   634   635      0   0   0
   634   636      0   0  -1
   635   590      0   0   0
   635   593      0   0   0
   635   632      0   0   0
   635   638      0   0   0
   635     2      1   0   0
   635     5      1   0   0
   635   634      0   0   0
   635   636      0   0   0
   636   591      0   0   0
   636   594      0   0   0
   636   633      0   0   0
   636   639      0   0   0
   636     3      1   0   0
   636     6      1   0   0
   636   635      0   0   0
   636   634      0   0   1
   637   592      0   0   0
   637   595      0   0   0
   637   634      0   0   0
   637   640      0   0   0
   637     4      1   0   0
   637     7      1   0   0
   637   638      0   0   0
   637   639      0   0  -1
   638   593      0   0   0
   638   596      0   0   0
   638   635      0   0   0
   638   641      0   0   0
   638     5      1   0   0
   638     8      1   0   0
   638   637      0   0   0
   638   639      0   0   0
   639   594      0   0   0
   639   597      0   0   0
   639   636      0   0   0
   639   642      0   0   0
   639     6      1   0   0
   639     9      1   0   0
   639   638      0   0   0
   639   637      0   0   1
   640   595      0   0   0
   640   598      0   0   0
   640   637      0   0   0
   640   643      0   0   0
   640     7      1   0   0
   640    10      1   0   0
   640   641      0   0   0
   640   642      0   0  -1
   641   596      0   0   0
   641   599      0   0   0
   641   638      0   0   0
   641   644      0   0   0
   641     8      1   0   0
   641    11      1   0   0
   641   640      0   0   0
   641   642      0   0   0
   642   597      0   0   0
   642   600      0   0   0
   642   639      0   0   0
   642   645      0   0   0
   642     9      1   0   0
   642    12      1   0   0
   642   641      0   0   0
   642   640      0   0   1
   643   598      0   0   0
   643   601      0   0   0
   643   640      0   0   0
   643   646      0   0   0
   643    10      1   0   0
   643    13      1   0   0
   643   644      0   0   0
   643   645      0   0  -1
   644   599      0   0   0
   644   602      0   0   0
   644   641      0   0   0
   644   647      0   0   0
   644    11      1   0   0
   644    14      1   0   0
   644   643      0   0   0
   644   645      0   0   0
   645   600      0   0   0
   645   603      0   0   0
   645   642      0   0   0
   645   648      0   0   0
   645    12      1   0   0
   645    15      1   0   0
   645   644      0   0   0
   645   643      0   0   1
   646   601      0   0   0
   646   604      0   0   0
   646   643      0   0   0
   646   649      0   0   0
   646    13      1   0   0
   646    16      1   0   0
   646   647      0   0   0
   646   648      0   0  -1
   647   602      0   0   0
   647   605      0   0   0
   647   644      0   0   0
   647   650      0   0   0
   647    14      1   0   0
   647    17      1   0   0
   647   646      0   0   0
   647   648      0   0   0
   648   603      0   0   0
   648   606      0   0   0
   648   645      0   0   0
   648   651      0   0   0
   648    15      1   0   0
   648    18      1   0   0
   648   647      0   0   0
   648   646      0   0   1
   649   604      0   0   0
   649   607      0   0   0
   649   646      0   0   0
   649   652      0   0   0
   649    16      1   0   0
   649    19      1   0   0
   649   650      0   0   0
   649   651      0   0  -1
   650   605      0   0   0
   650   608      0   0   0
   650   647      0   0   0
   650   653      0   0   0
   650    17      1   0   0
   650    20      1   0   0
   650   649      0   0   0
   650   651      0   0   0
   651   606      0   0   0
   651   609      0   0   0
   651   648      0   0   0
   651   654      0   0   0
   651    18      1   0   0
   651    21      1   0   0
   651   650      0   0   0
   651   649      0   0   1
   652   607      0   0   0
   652   610      0   0   0
   652   649      0   0   0
   652   655      0   0   0
   652    19      1   0   0
   652    22      1   0   0
   652   653      0   0   0
   652   654      0   0  -1
   653   608      0   0   0
   653   611      0   0   0
   653   650      0   0   0
   653   656      0   0   0
   653    20      1   0   0
   653    23      1   0   0
   653   652      0   0   0
   653   654      0   0   0
   654   609      0   0   0
   654   612      0   0   0
   654   651      0   0   0
   654   657      0   0   0
   654    21      1   0   0
   654    24      1   0   0
   654   653      0   0   0
   654   652      0   0   1
   655   610      0   0   0
   655   613      0   0   0
   655   652      0   0   0
   655   658      0   0   0
   655    22      1   0   0
   655    25      1   0   0
   655   656      0   0   0
   655   657      0   0  -1
   656   611      0   0   0
   656   614      0   0   0
   656   653      0   0   0
   656   659      0   0   0
   656    23      1   0   0
   656    26      1   0   0
   656   655      0   0   0
   656   657      0   0   0
   657   612      0   0   0
   657   615      0   0   0
   657   654      0   0   0
   657   660      0   0   0
   657    24      1   0   0
   657    27      1   0   0
   657   656      0   0   0
   657   655      0   0   1
   658   613      0   0   0
   658   616      0   0   0
   658   655      0   0   0
   658   661      0   0   0
   658    25      1   0   0
   658    28      1   0   0
   658   659      0   0   0
   658   660      0   0  -1
   659   614      0   0   0
   659   617      0   0   0
   659   656      0   0   0
   659   662      0   0   0
   659    26      1   0   0
   659    29      1   0   0
   659   658      0   0   0
   659   660      0   0   0
   660   615      0   0   0
   660   618      0   0   0
   660   657      0   0   0
   660   663      0   0   0
   660    27      1   0   0
   660    30      1   0   0
   660   659      0   0   0
   660   658      0   0   1
   661   616      0   0   0
   661   619      0   0   0
   661   658      0   0   0
   661   664      0   0   0
   661    28      1   0   0
   661    31      1   0   0
   661   662      0   0   0
   661   663      0   0  -1
   662   617      0   0   0
   662   620      0   0   0
   662   659      0   0   0
   662   665      0   0   0
   662    29      1   0   0
   662    32      1   0   0
   662   661      0   0   0
   662   663      0   0   0
   663   618      0   0   0
   663   621      0   0   0
   663   660      0   0   0
   663   666      0   0   0
   663    30      1   0   0
   663    33      1   0   0
   663   662      0   0   0
   663   661      0   0   1
   664   619      0   0   0
   664   622      0   0   0
   664   661      0   0   0
   664   667      0   0   0
   664    31      1   0   0
   664    34      1   0   0
   664   665      0   0   0
   664   666      0   0  -1
   665   620      0   0   0
   665   623      0   0   0
   665   662      0   0   0
   665   668      0   0   0
   665    32      1   0   0
   665    35      1   0   0
   665   664      0   0   0
   665   666      0   0   0
   666   621      0   0   0
   666   624      0   0   0
   666   663      0   0   0
   666   669      0   0   0
   666    33      1   0   0
   666    36      1   0   0
   666   665      0   0   0
   666   664      0   0   1
   667   622      0   0   0
   667   625      0   0   0
   667   664      0   0   0
   667   670      0   0   0
   667    34      1   0   0
   667    37      1   0   0
   667   668      0   0   0
   667   669      0   0  -1
   668   623      0   0   0
   668   626      0   0   0
   668   665      0   0   0
   668   671      0   0   0
   668    35      1   0   0
   668    38      1   0   0
   668   667      0   0   0
   668   669      0   0   0
   669   624      0   0   0
   669   627      0   0   0
   669   666      0   0   0
   669   672      0   0   0
   669    36      1   0   0
   669    39      1   0   0
   669   668      0   0   0
   669   667      0   0   1
   670   625      0   0   0
   670   628      0   0   0
   670   667      0   0   0
   670   673      0   0   0
   670    37      1   0   0
   670    40      1   0   0
   670   671      0   0   0
   670   672      0   0  -1
   671   626      0   0   0
   671   629      0   0   0
   671   668      0   0   0
   671   674      0   0   0
   671    38      1   0   0
   671    41      1   0   0
   671   670      0   0   0
   671   672      0   0   0
   672   627      0   0   0
   672   630      0   0   0
   672   669      0   0   0
   672   675      0   0   0
   672    39      1   0   0
   672    42      1   0   0
   672   671      0   0   0
   672   670      0   0   1
   673   628      0   0   0
   673   670      0   0   0
   673    40      1   0   0
   673    43      1   0   0
   673   586      0   1   0
   673   631      0   1   0
   673   674      0   0   0
   673   675      0   0  -1
   674   629      0   0   0
   674   671      0   0   0
   674    41      1   0   0
   674    44      1   0   0
   674   587      0   1   0
   674   632      0   1   0
   674   673      0   0   0
   674   675      0   0   0
   675   630      0   0   0
   675   672      0   0   0
   675    42      1   0   0
   675    45      1   0   0
   675   588      0   1   0
   675   633      0   1   0
   675   674      0   0   0
   675   673      0   0   1
end nnkpts

begin exclude_bands
   0
end exclude_bands
