
  ___ ___ ___ _ _ _  
 |   |   |_  | | | | 
 | | | | | . | | | | 
 |__ |  _|___|_____|  21.6.0
 |___|_|             

User:   pfsuo@cu18
Date:   Tue Nov  9 12:00:39 2021
Arch:   x86_64
Pid:    37674
Python: 3.8.5
gpaw:   /home/pfsuo/data0/anaconda3/lib/python3.8/site-packages/gpaw-21.6.0-py3.8-linux-x86_64.egg/gpaw
_gpaw:  /home/pfsuo/data0/anaconda3/lib/python3.8/site-packages/
        _gpaw.cpython-38-x86_64-linux-gnu.so
ase:    /home/pfsuo/data0/anaconda3/lib/python3.8/site-packages/ase (version 3.22.0)
numpy:  /home/pfsuo/data0/anaconda3/lib/python3.8/site-packages/numpy (version 1.21.3)
scipy:  /home/pfsuo/data0/anaconda3/lib/python3.8/site-packages/scipy (version 1.7.1)
libxc:  4.3.4
units:  Angstrom and eV
cores: 16
OpenMP: True
OMP_NUM_THREADS: 1

Input parameters:
  convergence: {bands: occupied,
                density: 1e-06,
                eigenstates: 4e-08,
                energy: 0.0005,
                forces: inf}
  gpts: [ 14  14 108]
  kpts: [[0.         0.         0.        ],
         [0.00333333 0.00333333 0.        ],
         [0.00666667 0.00666667 0.        ],
         ...,
         [0.01149425 0.         0.        ],
         [0.00574713 0.         0.        ],
         [0.         0.         0.        ]]
  mode: {ecut: 520.0,
         gammacentered: False,
         name: pw}
  nbands: 20
  occupations: {name: fermi-dirac,
                width: 0.1}
  poissonsolver: {dipolelayer: xy}
  symmetry: off

Initialize ...

C-setup:
  name: Carbon
  id: d60576a1f549371a163e72552ca58787
  Z: 6.0
  valence: 4
  core: 2
  charge: 0.0
  file: /home/pfsuo/software/gpaw-setups-0.9.20000/C.LDA.gz
  compensation charges: gauss, rc=0.20, lmax=2
  cutoffs: 1.14(filt), 1.14(core),
  valence states:
                energy  radius
    2s(2.00)   -13.639   0.635
    2p(2.00)    -5.414   0.635
    *s          13.573   0.635
    *p          21.797   0.635
    *d           0.000   0.635

  Using partial waves for C as LCAO basis

Reference energy: -2037.605076

Spin-paired calculation

Convergence criteria:
  Maximum total energy change: 0.0005 eV / electron
  Maximum integral of absolute density change: 1e-06 electrons
  Maximum integral of absolute eigenstate change: 4e-08 eV^2
  Maximum number of iterations: 333

Symmetries present (total): 1

  ( 1  0  0)
  ( 0  1  0)
  ( 0  0  1)

238 k-points
238 k-points in the irreducible part of the Brillouin zone
       k-points in crystal coordinates                weights
   0:     0.00000000    0.00000000    0.00000000       0.00420168
   1:     0.00333333    0.00333333    0.00000000       0.00420168
   2:     0.00666667    0.00666667    0.00000000       0.00420168
   3:     0.01000000    0.01000000    0.00000000       0.00420168
   4:     0.01333333    0.01333333    0.00000000       0.00420168
   5:     0.01666667    0.01666667    0.00000000       0.00420168
   6:     0.02000000    0.02000000    0.00000000       0.00420168
   7:     0.02333333    0.02333333    0.00000000       0.00420168
   8:     0.02666667    0.02666667    0.00000000       0.00420168
   9:     0.03000000    0.03000000    0.00000000       0.00420168
          ...
 237:     0.00000000    0.00000000    0.00000000       0.00420168

Wave functions: Plane wave expansion
  Cutoff energy: 520.000 eV
  Number of coefficients (min, max): 2751, 2844
  Pulay-stress correction: 0.000000 eV/Ang^3 (de/decut=0.000000)
  Using FFTW library
  ScaLapack parameters: grid=1x1, blocksize=None
  Wavefunction extrapolation:
    Improved wavefunction reuse through dual PAW basis 

Occupation numbers: Fermi-Dirac: width=0.1000 eV
 

Eigensolver
   Davidson(niter=2) 

Densities:
  Coarse grid: 14*14*108 grid
  Fine grid: 28*28*216 grid
  Total Charge: 0.000000 

Density mixing:
  Method: separate
  Backend: pulay
  Linear mixing parameter: 0.05
  Mixing with 5 old densities
  Damping of long wave oscillations: 50 

Hamiltonian:
  XC and Coulomb potentials evaluated on a 28*28*216 grid
  Using the LDA Exchange-Correlation functional
 

Memory estimate:
  Process memory now: 170.16 MiB
  Calculator: 30.61 MiB
    Density: 8.77 MiB
      Arrays: 4.20 MiB
      Localized functions: 2.95 MiB
      Mixer: 1.61 MiB
    Hamiltonian: 2.81 MiB
      Arrays: 2.75 MiB
      XC: 0.00 MiB
      Poisson: 0.00 MiB
      vbar: 0.06 MiB
    Wavefunctions: 19.04 MiB
      Arrays psit_nG: 12.15 MiB
      Eigensolver: 1.15 MiB
      Projections: 0.11 MiB
      Projectors: 4.21 MiB
      PW-descriptor: 1.42 MiB

Total number of cores used: 16
Parallelization over k-points: 16

Number of atoms: 2
Number of atomic orbitals: 8
Number of bands in calculation: 20
Number of valence electrons: 8
Bands to converge: occupied

... initialized

Initializing position-dependent things.

Creating initial wave functions:
  8 bands from LCAO basis set
  12 bands from random numbers

                    
                    
                    
                    
       C   C        
                    
                    
                    
                    

Positions:
   0 C      0.000000    0.000000   10.000000    ( 0.0000,  0.0000,  0.0000)
   1 C      1.223630    0.706463   10.000000    ( 0.0000,  0.0000,  0.0000)

Unit cell:
           periodic     x           y           z      points  spacing
  1. axis:    yes    2.447260    0.000000    0.000000    14     0.1514
  2. axis:    yes   -1.223630    2.119390    0.000000    14     0.1514
  3. axis:    no     0.000000    0.000000   20.000000   108     0.1852

  Lengths:   2.447260   2.447260  20.000000
  Angles:   90.000000  90.000000 120.000000

Effective grid spacing dv^(1/3) = 0.1699

                     log10-error:    total        iterations:
           time      wfs    density  energy       poisson
iter:   1  12:00:42                 -18.966267           
iter:   2  12:00:43  -1.31          -18.989401           
iter:   3  12:00:44  -2.42          -18.990121           
iter:   4  12:00:45  -3.28          -18.990198           
iter:   5  12:00:46  -4.11          -18.990208           
iter:   6  12:00:47  -4.95          -18.990210           
iter:   7  12:00:48  -5.79          -18.990210           
iter:   8  12:00:49  -6.65          -18.990210           
iter:   9  12:00:50  -7.52          -18.990210           

Converged after 9 iterations.

Dipole moment: (0.890098, -0.513899, 0.000000) |e|*Ang

Energy contributions relative to reference atoms: (reference = -2037.605076)

Kinetic:        +21.292808
Potential:      -20.080967
External:        +0.000000
XC:             -20.222122
Entropy (-ST):   -0.005903
Local:           +0.023023
--------------------------
Free energy:    -18.993162
Extrapolated:   -18.990210

Dipole-layer corrected work functions: 4.488897, 4.488894 eV

Showing only first 2 kpts
 Kpt  Band  Eigenvalues  Occupancy
  0     2     -5.74184    2.00000
  0     3     -5.74183    2.00000
  0     4      0.63329    0.00000
  0     5      1.56564    0.00000

  1     2     -5.74495    2.00000
  1     3     -5.74350    2.00000
  1     4      0.63436    0.00000
  1     5      1.56674    0.00000


Fermi level: -2.71023

No gap
Writing to band.gpw (mode='all')

Timing:                              incl.     excl.
-----------------------------------------------------------
Hamiltonian:                         0.195     0.000   0.0% |
 Atomic:                             0.018     0.018   0.1% |
  XC Correction:                     0.000     0.000   0.0% |
 Calculate atomic Hamiltonians:      0.003     0.003   0.0% |
 Communicate:                        0.148     0.148   0.9% |
 Initialize Hamiltonian:             0.000     0.000   0.0% |
 Poisson:                            0.004     0.004   0.0% |
 XC 3D grid:                         0.021     0.021   0.1% |
LCAO initialization:                 0.583     0.030   0.2% |
 LCAO eigensolver:                   0.084     0.001   0.0% |
  Calculate projections:             0.000     0.000   0.0% |
  DenseAtomicCorrection:             0.001     0.001   0.0% |
  Distribute overlap matrix:         0.000     0.000   0.0% |
  Orbital Layouts:                   0.002     0.002   0.0% |
  Potential matrix:                  0.074     0.074   0.4% |
  Sum over cells:                    0.005     0.005   0.0% |
 LCAO to grid:                       0.401     0.401   2.4% ||
 Set positions (LCAO WFS):           0.068     0.014   0.1% |
  Basic WFS set positions:           0.000     0.000   0.0% |
  Basis functions set positions:     0.000     0.000   0.0% |
  P tci:                             0.021     0.021   0.1% |
  ST tci:                            0.026     0.026   0.2% |
  mktci:                             0.007     0.007   0.0% |
PWDescriptor:                        0.026     0.026   0.2% |
SCF-cycle:                           9.900     5.729  34.1% |-------------|
 Davidson:                           4.146     0.666   4.0% |-|
  Apply H:                           0.667     0.626   3.7% ||
   HMM T:                            0.041     0.041   0.2% |
  Subspace diag:                     0.861     0.010   0.1% |
   calc_h_matrix:                    0.733     0.056   0.3% |
    Apply H:                         0.676     0.628   3.7% ||
     HMM T:                          0.048     0.048   0.3% |
   diagonalize:                      0.030     0.030   0.2% |
   rotate_psi:                       0.088     0.088   0.5% |
  calc. matrices:                    1.702     0.370   2.2% ||
   Apply H:                          1.333     1.258   7.5% |--|
    HMM T:                           0.075     0.075   0.4% |
  diagonalize:                       0.111     0.111   0.7% |
  rotate_psi:                        0.139     0.139   0.8% |
 Orthonormalize:                     0.025     0.001   0.0% |
  calc_s_matrix:                     0.005     0.005   0.0% |
  inverse-cholesky:                  0.002     0.002   0.0% |
  projections:                       0.013     0.013   0.1% |
  rotate_psi_s:                      0.005     0.005   0.0% |
Set symmetry:                        0.000     0.000   0.0% |
Other:                               6.116     6.116  36.4% |--------------|
-----------------------------------------------------------
Total:                                        16.820 100.0%

Memory usage: 227.13 MiB
Date: Tue Nov  9 12:00:56 2021
