 
             +---------------------------------------------------+
             |                                                   |
             |                   WANNIER90                       |
             |                                                   |
             +---------------------------------------------------+
             |                                                   |
             |        Welcome to the Maximally-Localized         |
             |        Generalized Wannier Functions code         |
             |            http://www.wannier.org                 |
             |                                                   |
             |                                                   |
             |  Wannier90 Developer Group:                       |
             |    Giovanni Pizzi    (EPFL)                       |
             |    Valerio Vitale    (Cambridge)                  |
             |    David Vanderbilt  (Rutgers University)         |
             |    Nicola Marzari    (EPFL)                       |
             |    Ivo Souza         (Universidad del Pais Vasco) |
             |    Arash A. Mostofi  (Imperial College London)    |
             |    Jonathan R. Yates (University of Oxford)       |
             |                                                   |
             |  For the full list of Wannier90 3.x authors,      |
             |  please check the code documentation and the      |
             |  README on the GitHub page of the code            |
             |                                                   |
             |                                                   |
             |  Please cite                                      |
             |                                                   |
             |  [ref] "Wannier90 as a community code:            |
             |        new features and applications",            |
             |        G. Pizzi et al., J. Phys. Cond. Matt. 32,  |
             |        165902 (2020).                             |
             |        http://doi.org/10.1088/1361-648X/ab51ff    |
             |                                                   |
             |  in any publications arising from the use of      |
             |  this code. For the method please cite            |
             |                                                   |
             |  [ref] "Maximally Localized Generalised Wannier   |
             |         Functions for Composite Energy Bands"     |
             |         N. Marzari and D. Vanderbilt              |
             |         Phys. Rev. B 56 12847 (1997)              |
             |                                                   |
             |  [ref] "Maximally Localized Wannier Functions     |
             |         for Entangled Energy Bands"               |
             |         I. Souza, N. Marzari and D. Vanderbilt    |
             |         Phys. Rev. B 65 035109 (2001)             |
             |                                                   |
             |                                                   |
             | Copyright (c) 1996-2020                           |
             |        The Wannier90 Developer Group and          |
             |        individual contributors                    |
             |                                                   |
             |      Release: 3.1.0        5th March    2020      |
             |                                                   |
             | This program is free software; you can            |
             | redistribute it and/or modify it under the terms  |
             | of the GNU General Public License as published by |
             | the Free Software Foundation; either version 2 of |
             | the License, or (at your option) any later version|
             |                                                   |
             | This program is distributed in the hope that it   |
             | will be useful, but WITHOUT ANY WARRANTY; without |
             | even the implied warranty of MERCHANTABILITY or   |
             | FITNESS FOR A PARTICULAR PURPOSE. See the GNU     |
             | General Public License for more details.          |
             |                                                   |
             | You should have received a copy of the GNU General|
             | Public License along with this program; if not,   |
             | write to the Free Software Foundation, Inc.,      |
             | 675 Mass Ave, Cambridge, MA 02139, USA.           |
             |                                                   |
             +---------------------------------------------------+
             |    Execution started on  9Nov2021 at 12:19:09     |
             +---------------------------------------------------+
 
 ******************************************************************************
 * -> Using CODATA 2006 constant values                                       *
 *    (http://physics.nist.gov/cuu/Constants/index.html)                      *
 * -> Using Bohr value from CODATA                                            *
 ******************************************************************************
 

 Running in parallel on  16 CPUs

 
                                    ------
                                    SYSTEM
                                    ------
 
                              Lattice Vectors (Ang)
                    a_1     2.447260   0.000000   0.000000
                    a_2    -1.223630   2.119390   0.000000
                    a_3     0.000000   0.000000  20.000000
 
                   Unit Cell Volume:     103.73398  (Ang^3)
 
                        Reciprocal-Space Vectors (Ang^-1)
                    b_1     2.567436   1.482310   0.000000
                    b_2     0.000000   2.964620   0.000000
                    b_3     0.000000   0.000000   0.314159
  
 *----------------------------------------------------------------------------*
 |   Site       Fractional Coordinate          Cartesian Coordinate (Ang)     |
 +----------------------------------------------------------------------------+
 | C    1   0.00000   0.00000   0.50000   |    0.00000   0.00000  10.00000    |
 | C    2   0.66667   0.33333   0.50000   |    1.22363   0.70646  10.00000    |
 *----------------------------------------------------------------------------*
                                ------------
                                K-POINT GRID
                                ------------
  
             Grid size = 24 x 24 x  1      Total points =  576
  
  
 *---------------------------------- MAIN ------------------------------------*
 |  Number of Wannier Functions               :                 2             |
 |  Number of Objective Wannier Functions     :                 2             |
 |  Number of input Bloch states              :                15             |
 |  Output verbosity (1=low, 5=high)          :                 1             |
 |  Timing Level (1=low, 5=high)              :                 1             |
 |  Optimisation (0=memory, 3=speed)          :                 3             |
 |  Length Unit                               :               Ang             |
 |  Post-processing setup (write *.nnkp)      :                 F             |
 |  Using Gamma-only branch of algorithms     :                 F             |
 *----------------------------------------------------------------------------*
 *------------------------------- WANNIERISE ---------------------------------*
 |  Total number of iterations                :               200             |
 |  Number of CG steps before reset           :                 5             |
 |  Trial step length for line search         :             2.000             |
 |  Convergence tolerence                     :         0.100E-09             |
 |  Convergence window                        :                -1             |
 |  Iterations between writing output         :                 1             |
 |  Iterations between backing up to disk     :               100             |
 |  Write r^2_nm to file                      :                 F             |
 |  Write xyz WF centres to file              :                 T             |
 |  Write on-site energies <0n|H|0n> to file  :                 F             |
 |  Use guiding centre to control phases      :                 T             |
 |  Use phases for initial projections        :                 F             |
 |  Iterations before starting guiding centres:                 0             |
 |  Iterations between using guiding centres  :                 1             |
 *----------------------------------------------------------------------------*
 *------------------------------- DISENTANGLE --------------------------------*
 |  Using band disentanglement                :                 T             |
 |  Total number of iterations                :             10000             |
 |  Mixing ratio                              :             0.500             |
 |  Convergence tolerence                     :         1.000E-10             |
 |  Convergence window                        :                 3             |
 *----------------------------------------------------------------------------*
 *-------------------------------- PLOTTING ----------------------------------*
 |  Plotting interpolated bandstructure       :                 T             |
 |   Number of K-path sections                :                 3             |
 |   Divisions along first K-path section     :               100             |
 |   Output format                            :           gnuplot             |
 |   Output mode                              :               s-k             |
 *----------------------------------------------------------------------------*
 |   K-space path sections:                                                   |
 |    From: G       0.000  0.000  0.000     To: K       0.333  0.333  0.000   |
 |    From: K       0.333  0.333  0.000     To: M       0.500  0.000  0.000   |
 |    From: M       0.500  0.000  0.000     To: G       0.000  0.000  0.000   |
 *----------------------------------------------------------------------------*
 |  Plotting Hamiltonian in WF basis          :                 T             |
 *----------------------------------------------------------------------------*
 Time to read parameters        0.047 (sec)

 *---------------------------------- K-MESH ----------------------------------*
 +----------------------------------------------------------------------------+
 |                    Distance to Nearest-Neighbour Shells                    |
 |                    ------------------------------------                    |
 |          Shell             Distance (Ang^-1)          Multiplicity         |
 |          -----             -----------------          ------------         |
 |             1                   0.123526                      6            |
 |             2                   0.213953                      6            |
 |             3                   0.247052                      6            |
 |             4                   0.314159                      2            |
 |             5                   0.326819                     12            |
 |             6                   0.337572                     12            |
 |             7                   0.370578                      6            |
 |             8                   0.380095                     12            |
 |             9                   0.399663                     12            |
 |            10                   0.427906                      6            |
 |            11                   0.445379                     12            |
 |            12                   0.453328                     24            |
 |            13                   0.485823                     12            |
 |            14                   0.494103                      6            |
 |            15                   0.530848                     12            |
 |            16                   0.538437                     12            |
 |            17                   0.545031                     24            |
 |            18                   0.566066                     12            |
 |            19                   0.585520                     12            |
 |            20                   0.617629                      6            |
 |            21                   0.623386                     24            |
 |            22                   0.628319                      2            |
 |            23                   0.640346                     12            |
 |            24                   0.641859                      6            |
 |            25                   0.647400                     24            |
 |            26                   0.653637                     12            |
 |            27                   0.663747                     12            |
 |            28                   0.675143                     12            |
 |            29                   0.687763                     12            |
 |            30                   0.692937                     12            |
 |            31                   0.708233                     24            |
 |            32                   0.714618                     12            |
 |            33                   0.725216                     24            |
 |            34                   0.729460                     12            |
 |            35                   0.741155                      6            |
 |            36                   0.751378                     12            |
 +----------------------------------------------------------------------------+
 | The b-vectors are chosen automatically                                     |
 | SVD found small singular value, Rejecting this shell and trying the next   |
 | The following shells are used:   1,  4                                     |
 +----------------------------------------------------------------------------+
 |                        Shell   # Nearest-Neighbours                        |
 |                        -----   --------------------                        |
 |                          1               6                                 |
 |                          4               2                                 |
 +----------------------------------------------------------------------------+
 | Completeness relation is fully satisfied [Eq. (B1), PRB 56, 12847 (1997)]  |
 +----------------------------------------------------------------------------+
 |                  b_k Vectors (Ang^-1) and Weights (Ang^2)                  |
 |                  ----------------------------------------                  |
 |            No.         b_k(x)      b_k(y)      b_k(z)        w_b           |
 |            ---        --------------------------------     --------        |
 |             1         0.000000    0.123526    0.000000    21.845559        |
 |             2         0.106977    0.061763    0.000000    21.845559        |
 |             3         0.000000   -0.123526    0.000000    21.845559        |
 |             4         0.106977   -0.061763    0.000000    21.845559        |
 |             5        -0.106977   -0.061763    0.000000    21.845559        |
 |             6        -0.106977    0.061763    0.000000    21.845559        |
 |             7         0.000000    0.000000    0.314159     5.066059        |
 |             8         0.000000    0.000000   -0.314159     5.066059        |
 +----------------------------------------------------------------------------+
 |                           b_k Directions (Ang^-1)                          |
 |                           -----------------------                          |
 |            No.           x           y           z                         |
 |            ---        --------------------------------                     |
 |             1         0.000000    0.123526    0.000000                     |
 |             2         0.106977    0.061763    0.000000                     |
 |             3         0.106977   -0.061763    0.000000                     |
 |             4         0.000000    0.000000    0.314159                     |
 +----------------------------------------------------------------------------+
  
 Time to get kmesh              0.392 (sec)
 *============================================================================*
 |                              MEMORY ESTIMATE                               |
 |         Maximum RAM allocated during each phase of the calculation         |
 *============================================================================*
 |                        Disentanglement           20.78 Mb                  |
 |                            Wannierise:            1.61 Mb                  |
 |                          plot_wannier:            1.61 Mb                  |
 *----------------------------------------------------------------------------*
  
 Starting a new Wannier90 calculation ...


 Reading overlaps from gra.mmn    : Kohn-Sham input generated from GPAW calculation

 Reading projections from gra.amn : Kohn-Sham input generated from GPAW calculation

 Time to read overlaps          0.869 (sec)

 *------------------------------- DISENTANGLE --------------------------------*
 +----------------------------------------------------------------------------+
 |                              Energy  Windows                               |
 |                              ---------------                               |
 |                   Outer:  -15.98812  to   17.00000  (eV)                   |
 |                   No frozen states were specified                          |
 +----------------------------------------------------------------------------+
   Number of target bands to extract:    2

                   Unitarised projection of Wannier functions                  
                   ------------------------------------------                  
   A_mn = <psi_m|g_n> --> S = A.A^+ --> U = S^-1/2.A
   In dis_project... done
   No inner window (linner = F)

                   Extraction of optimally-connected subspace                  
                   ------------------------------------------                  
 +---------------------------------------------------------------------+<-- DIS
 |  Iter     Omega_I(i-1)      Omega_I(i)      Delta (frac.)    Time   |<-- DIS
 +---------------------------------------------------------------------+<-- DIS
       1       6.11834016       5.08511887       2.032E-01      0.00    <-- DIS
       2       5.56609997       4.82397667       1.538E-01      0.00    <-- DIS
       3       5.16969544       4.63409701       1.156E-01      0.00    <-- DIS
       4       4.88235178       4.48599366       8.835E-02      0.01    <-- DIS
       5       4.66842072       4.36570426       6.934E-02      0.01    <-- DIS
       6       4.50397242       4.26515920       5.599E-02      0.01    <-- DIS
       7       4.37343333       4.17926069       4.646E-02      0.01    <-- DIS
       8       4.26670696       4.10460751       3.949E-02      0.01    <-- DIS
       9       4.17718866       4.03883299       3.426E-02      0.01    <-- DIS
      10       4.10048409       3.98023162       3.021E-02      0.02    <-- DIS
      11       4.03360355       3.92753713       2.701E-02      0.02    <-- DIS
      12       3.97446012       3.87978515       2.440E-02      0.02    <-- DIS
      13       3.92155706       3.83622495       2.224E-02      0.02    <-- DIS
      14       3.87379152       3.79626107       2.042E-02      0.02    <-- DIS
      15       3.83032979       3.75941347       1.886E-02      0.02    <-- DIS
      16       3.79052667       3.72528969       1.751E-02      0.03    <-- DIS
      17       3.75387232       3.69356492       1.633E-02      0.03    <-- DIS
      18       3.71995642       3.66396744       1.528E-02      0.03    <-- DIS
      19       3.68844353       3.63626777       1.435E-02      0.03    <-- DIS
      20       3.65905567       3.61027045       1.351E-02      0.03    <-- DIS
      21       3.63155976       3.58580779       1.276E-02      0.03    <-- DIS
      22       3.60575839       3.56273486       1.208E-02      0.04    <-- DIS
      23       3.58148288       3.54092571       1.145E-02      0.04    <-- DIS
      24       3.55858796       3.52027021       1.088E-02      0.04    <-- DIS
      25       3.53694769       3.50067157       1.036E-02      0.04    <-- DIS
      26       3.51645217       3.48204433       9.882E-03      0.04    <-- DIS
      27       3.49700496       3.46431272       9.437E-03      0.04    <-- DIS
      28       3.47852106       3.44740922       9.025E-03      0.05    <-- DIS
      29       3.46092510       3.43127348       8.642E-03      0.05    <-- DIS
      30       3.44415006       3.41585136       8.285E-03      0.05    <-- DIS
      31       3.42813602       3.40109409       7.951E-03      0.05    <-- DIS
      32       3.41282928       3.38695763       7.639E-03      0.05    <-- DIS
      33       3.39818148       3.37340208       7.346E-03      0.05    <-- DIS
      34       3.38414896       3.36039116       7.070E-03      0.06    <-- DIS
      35       3.37069217       3.34789185       6.810E-03      0.06    <-- DIS
      36       3.35777520       3.33587393       6.565E-03      0.06    <-- DIS
      37       3.34536530       3.32430977       6.334E-03      0.06    <-- DIS
      38       3.33343257       3.31317397       6.115E-03      0.06    <-- DIS
      39       3.32194963       3.30244317       5.907E-03      0.06    <-- DIS
      40       3.31089134       3.29209581       5.709E-03      0.07    <-- DIS
      41       3.30023455       3.28211199       5.522E-03      0.07    <-- DIS
      42       3.28995794       3.27247327       5.343E-03      0.07    <-- DIS
      43       3.28004178       3.26316252       5.173E-03      0.07    <-- DIS
      44       3.27046782       3.25416386       5.010E-03      0.07    <-- DIS
      45       3.26121911       3.24546246       4.855E-03      0.07    <-- DIS
      46       3.25227991       3.23704452       4.707E-03      0.07    <-- DIS
      47       3.24363554       3.22889713       4.565E-03      0.08    <-- DIS
      48       3.23527234       3.22100821       4.428E-03      0.08    <-- DIS
      49       3.22717751       3.21336644       4.298E-03      0.08    <-- DIS
      50       3.21933910       3.20596121       4.173E-03      0.08    <-- DIS
      51       3.21174590       3.19878253       4.053E-03      0.08    <-- DIS
      52       3.20438739       3.19182101       3.937E-03      0.08    <-- DIS
      53       3.19725368       3.18506780       3.826E-03      0.09    <-- DIS
      54       3.19033547       3.17851456       3.719E-03      0.09    <-- DIS
      55       3.18362399       3.17215339       3.616E-03      0.09    <-- DIS
      56       3.17711097       3.16597684       3.517E-03      0.09    <-- DIS
      57       3.17078860       3.15997786       3.421E-03      0.09    <-- DIS
      58       3.16464949       3.15414976       3.329E-03      0.09    <-- DIS
      59       3.15868664       3.14848620       3.240E-03      0.10    <-- DIS
      60       3.15289343       3.14298115       3.154E-03      0.10    <-- DIS
      61       3.14726358       3.13762890       3.071E-03      0.10    <-- DIS
      62       3.14179111       3.13242400       2.990E-03      0.10    <-- DIS
      63       3.13647036       3.12736128       2.913E-03      0.10    <-- DIS
      64       3.13129592       3.12243579       2.838E-03      0.10    <-- DIS
      65       3.12626267       3.11764283       2.765E-03      0.10    <-- DIS
      66       3.12136570       3.11297791       2.694E-03      0.11    <-- DIS
      67       3.11660036       3.10843674       2.626E-03      0.11    <-- DIS
      68       3.11196219       3.10401523       2.560E-03      0.11    <-- DIS
      69       3.10744693       3.09970946       2.496E-03      0.11    <-- DIS
      70       3.10305053       3.09551567       2.434E-03      0.11    <-- DIS
      71       3.09876910       3.09143028       2.374E-03      0.11    <-- DIS
      72       3.09459891       3.08744985       2.316E-03      0.12    <-- DIS
      73       3.09053641       3.08357107       2.259E-03      0.12    <-- DIS
      74       3.08657818       3.07979080       2.204E-03      0.12    <-- DIS
      75       3.08272095       3.07610599       2.150E-03      0.12    <-- DIS
      76       3.07896159       3.07251373       2.099E-03      0.12    <-- DIS
      77       3.07529709       3.06901122       2.048E-03      0.12    <-- DIS
      78       3.07172454       3.06559576       1.999E-03      0.13    <-- DIS
      79       3.06824118       3.06226478       1.952E-03      0.13    <-- DIS
      80       3.06484433       3.05901577       1.905E-03      0.13    <-- DIS
      81       3.06153142       3.05584635       1.860E-03      0.13    <-- DIS
      82       3.05829999       3.05275420       1.817E-03      0.13    <-- DIS
      83       3.05514765       3.04973710       1.774E-03      0.13    <-- DIS
      84       3.05207211       3.04679291       1.733E-03      0.14    <-- DIS
      85       3.04907116       3.04391956       1.692E-03      0.14    <-- DIS
      86       3.04614268       3.04111506       1.653E-03      0.14    <-- DIS
      87       3.04328461       3.03837749       1.615E-03      0.14    <-- DIS
      88       3.04049498       3.03570499       1.578E-03      0.14    <-- DIS
      89       3.03777188       3.03309576       1.542E-03      0.14    <-- DIS
      90       3.03511347       3.03054808       1.506E-03      0.15    <-- DIS
      91       3.03251795       3.02806027       1.472E-03      0.15    <-- DIS
      92       3.02998362       3.02563072       1.439E-03      0.15    <-- DIS
      93       3.02750882       3.02325787       1.406E-03      0.15    <-- DIS
      94       3.02509194       3.02094019       1.374E-03      0.15    <-- DIS
      95       3.02273141       3.01867624       1.343E-03      0.15    <-- DIS
      96       3.02042576       3.01646459       1.313E-03      0.15    <-- DIS
      97       3.01817351       3.01430387       1.284E-03      0.16    <-- DIS
      98       3.01597327       3.01219275       1.255E-03      0.16    <-- DIS
      99       3.01382367       3.01012996       1.227E-03      0.16    <-- DIS
     100       3.01172340       3.00811424       1.200E-03      0.16    <-- DIS
     101       3.00967118       3.00614440       1.173E-03      0.16    <-- DIS
     102       3.00766576       3.00421925       1.147E-03      0.16    <-- DIS
     103       3.00570597       3.00233767       1.122E-03      0.17    <-- DIS
     104       3.00379062       3.00049855       1.097E-03      0.17    <-- DIS
     105       3.00191860       2.99870084       1.073E-03      0.17    <-- DIS
     106       3.00008880       2.99694349       1.050E-03      0.17    <-- DIS
     107       2.99830018       2.99522550       1.027E-03      0.17    <-- DIS
     108       2.99655171       2.99354590       1.004E-03      0.17    <-- DIS
     109       2.99484238       2.99190374       9.822E-04      0.18    <-- DIS
     110       2.99317123       2.99029810       9.608E-04      0.18    <-- DIS
     111       2.99153731       2.98872808       9.399E-04      0.18    <-- DIS
     112       2.98993972       2.98719283       9.196E-04      0.18    <-- DIS
     113       2.98837756       2.98569150       8.996E-04      0.18    <-- DIS
     114       2.98684998       2.98422327       8.802E-04      0.18    <-- DIS
     115       2.98535614       2.98278734       8.612E-04      0.19    <-- DIS
     116       2.98389522       2.98138294       8.427E-04      0.19    <-- DIS
     117       2.98246643       2.98000933       8.245E-04      0.19    <-- DIS
     118       2.98106900       2.97866575       8.068E-04      0.19    <-- DIS
     119       2.97970219       2.97735152       7.895E-04      0.19    <-- DIS
     120       2.97836527       2.97606592       7.726E-04      0.19    <-- DIS
     121       2.97705753       2.97480830       7.561E-04      0.20    <-- DIS
     122       2.97577828       2.97357799       7.399E-04      0.20    <-- DIS
     123       2.97452686       2.97237435       7.242E-04      0.20    <-- DIS
     124       2.97330260       2.97119677       7.087E-04      0.20    <-- DIS
     125       2.97210488       2.97004464       6.937E-04      0.20    <-- DIS
     126       2.97093309       2.96891737       6.789E-04      0.20    <-- DIS
     127       2.96978661       2.96781439       6.645E-04      0.21    <-- DIS
     128       2.96866486       2.96673513       6.505E-04      0.21    <-- DIS
     129       2.96756727       2.96567906       6.367E-04      0.21    <-- DIS
     130       2.96649329       2.96464565       6.232E-04      0.21    <-- DIS
     131       2.96544238       2.96363437       6.101E-04      0.21    <-- DIS
     132       2.96441400       2.96264473       5.972E-04      0.21    <-- DIS
     133       2.96340765       2.96167623       5.846E-04      0.22    <-- DIS
     134       2.96242283       2.96072840       5.723E-04      0.22    <-- DIS
     135       2.96145903       2.95980077       5.603E-04      0.22    <-- DIS
     136       2.96051581       2.95889288       5.485E-04      0.22    <-- DIS
     137       2.95959267       2.95800429       5.370E-04      0.22    <-- DIS
     138       2.95868918       2.95713457       5.257E-04      0.22    <-- DIS
     139       2.95780490       2.95628330       5.147E-04      0.22    <-- DIS
     140       2.95693939       2.95545007       5.039E-04      0.23    <-- DIS
     141       2.95609223       2.95463447       4.934E-04      0.23    <-- DIS
     142       2.95526302       2.95383611       4.831E-04      0.23    <-- DIS
     143       2.95445136       2.95305461       4.730E-04      0.23    <-- DIS
     144       2.95365685       2.95228960       4.631E-04      0.23    <-- DIS
     145       2.95287912       2.95154072       4.535E-04      0.23    <-- DIS
     146       2.95211779       2.95080761       4.440E-04      0.24    <-- DIS
     147       2.95137251       2.95008992       4.348E-04      0.24    <-- DIS
     148       2.95064292       2.94938731       4.257E-04      0.24    <-- DIS
     149       2.94992868       2.94869946       4.169E-04      0.24    <-- DIS
     150       2.94922945       2.94802604       4.082E-04      0.24    <-- DIS
     151       2.94854490       2.94736674       3.997E-04      0.24    <-- DIS
     152       2.94787470       2.94672125       3.914E-04      0.24    <-- DIS
     153       2.94721856       2.94608926       3.833E-04      0.25    <-- DIS
     154       2.94657616       2.94547050       3.754E-04      0.25    <-- DIS
     155       2.94594720       2.94486466       3.676E-04      0.25    <-- DIS
     156       2.94533139       2.94427147       3.600E-04      0.25    <-- DIS
     157       2.94472845       2.94369066       3.525E-04      0.25    <-- DIS
     158       2.94413809       2.94312196       3.453E-04      0.25    <-- DIS
     159       2.94356006       2.94256511       3.381E-04      0.26    <-- DIS
     160       2.94299407       2.94201985       3.311E-04      0.26    <-- DIS
     161       2.94243987       2.94148594       3.243E-04      0.26    <-- DIS
     162       2.94189721       2.94096313       3.176E-04      0.26    <-- DIS
     163       2.94136584       2.94045118       3.111E-04      0.26    <-- DIS
     164       2.94084552       2.93994986       3.046E-04      0.26    <-- DIS
     165       2.94033600       2.93945895       2.984E-04      0.26    <-- DIS
     166       2.93983707       2.93897821       2.922E-04      0.27    <-- DIS
     167       2.93934849       2.93850745       2.862E-04      0.27    <-- DIS
     168       2.93887004       2.93804643       2.803E-04      0.27    <-- DIS
     169       2.93840151       2.93759496       2.746E-04      0.27    <-- DIS
     170       2.93794268       2.93715284       2.689E-04      0.27    <-- DIS
     171       2.93749335       2.93671985       2.634E-04      0.27    <-- DIS
     172       2.93705332       2.93629582       2.580E-04      0.28    <-- DIS
     173       2.93662239       2.93588055       2.527E-04      0.28    <-- DIS
     174       2.93620037       2.93547385       2.475E-04      0.28    <-- DIS
     175       2.93578706       2.93507554       2.424E-04      0.28    <-- DIS
     176       2.93538229       2.93468546       2.374E-04      0.28    <-- DIS
     177       2.93498587       2.93430342       2.326E-04      0.28    <-- DIS
     178       2.93459763       2.93392925       2.278E-04      0.28    <-- DIS
     179       2.93421739       2.93356278       2.231E-04      0.29    <-- DIS
     180       2.93384499       2.93320387       2.186E-04      0.29    <-- DIS
     181       2.93348026       2.93285234       2.141E-04      0.29    <-- DIS
     182       2.93312304       2.93250804       2.097E-04      0.29    <-- DIS
     183       2.93277317       2.93217083       2.054E-04      0.29    <-- DIS
     184       2.93243050       2.93184055       2.012E-04      0.29    <-- DIS
     185       2.93209488       2.93151705       1.971E-04      0.30    <-- DIS
     186       2.93176615       2.93120020       1.931E-04      0.30    <-- DIS
     187       2.93144418       2.93088985       1.891E-04      0.30    <-- DIS
     188       2.93112882       2.93058587       1.853E-04      0.30    <-- DIS
     189       2.93081994       2.93028813       1.815E-04      0.30    <-- DIS
     190       2.93051739       2.92999650       1.778E-04      0.30    <-- DIS
     191       2.93022105       2.92971084       1.742E-04      0.30    <-- DIS
     192       2.92993079       2.92943104       1.706E-04      0.31    <-- DIS
     193       2.92964648       2.92915697       1.671E-04      0.31    <-- DIS
     194       2.92936799       2.92888851       1.637E-04      0.31    <-- DIS
     195       2.92909521       2.92862555       1.604E-04      0.31    <-- DIS
     196       2.92882802       2.92836798       1.571E-04      0.31    <-- DIS
     197       2.92856630       2.92811567       1.539E-04      0.31    <-- DIS
     198       2.92830993       2.92786852       1.508E-04      0.32    <-- DIS
     199       2.92805881       2.92762643       1.477E-04      0.32    <-- DIS
     200       2.92781282       2.92738928       1.447E-04      0.32    <-- DIS
     201       2.92757186       2.92715698       1.417E-04      0.32    <-- DIS
     202       2.92733583       2.92692943       1.388E-04      0.32    <-- DIS
     203       2.92710462       2.92670652       1.360E-04      0.32    <-- DIS
     204       2.92687814       2.92648817       1.333E-04      0.32    <-- DIS
     205       2.92665628       2.92627427       1.305E-04      0.33    <-- DIS
     206       2.92643894       2.92606473       1.279E-04      0.33    <-- DIS
     207       2.92622605       2.92585947       1.253E-04      0.33    <-- DIS
     208       2.92601750       2.92565840       1.227E-04      0.33    <-- DIS
     209       2.92581320       2.92546142       1.202E-04      0.33    <-- DIS
     210       2.92561307       2.92526847       1.178E-04      0.33    <-- DIS
     211       2.92541702       2.92507944       1.154E-04      0.34    <-- DIS
     212       2.92522496       2.92489426       1.131E-04      0.34    <-- DIS
     213       2.92503682       2.92471286       1.108E-04      0.34    <-- DIS
     214       2.92485251       2.92453515       1.085E-04      0.34    <-- DIS
     215       2.92467196       2.92436106       1.063E-04      0.34    <-- DIS
     216       2.92449508       2.92419051       1.042E-04      0.34    <-- DIS
     217       2.92432180       2.92402343       1.020E-04      0.34    <-- DIS
     218       2.92415205       2.92385975       9.997E-05      0.35    <-- DIS
     219       2.92398575       2.92369940       9.794E-05      0.35    <-- DIS
     220       2.92382284       2.92354231       9.596E-05      0.35    <-- DIS
     221       2.92366324       2.92338841       9.401E-05      0.35    <-- DIS
     222       2.92350688       2.92323764       9.210E-05      0.35    <-- DIS
     223       2.92335371       2.92308994       9.024E-05      0.35    <-- DIS
     224       2.92320364       2.92294524       8.841E-05      0.36    <-- DIS
     225       2.92305663       2.92280347       8.661E-05      0.36    <-- DIS
     226       2.92291260       2.92266459       8.486E-05      0.36    <-- DIS
     227       2.92277150       2.92252852       8.314E-05      0.36    <-- DIS
     228       2.92263326       2.92239522       8.145E-05      0.36    <-- DIS
     229       2.92249783       2.92226462       7.981E-05      0.36    <-- DIS
     230       2.92236515       2.92213667       7.819E-05      0.36    <-- DIS
     231       2.92223516       2.92201132       7.661E-05      0.37    <-- DIS
     232       2.92210781       2.92188851       7.505E-05      0.37    <-- DIS
     233       2.92198304       2.92176819       7.354E-05      0.37    <-- DIS
     234       2.92186081       2.92165031       7.205E-05      0.37    <-- DIS
     235       2.92174105       2.92153482       7.059E-05      0.37    <-- DIS
     236       2.92162372       2.92142167       6.916E-05      0.37    <-- DIS
     237       2.92150877       2.92131081       6.776E-05      0.38    <-- DIS
     238       2.92139614       2.92120220       6.639E-05      0.38    <-- DIS
     239       2.92128580       2.92109579       6.505E-05      0.38    <-- DIS
     240       2.92117770       2.92099154       6.373E-05      0.38    <-- DIS
     241       2.92107179       2.92088939       6.244E-05      0.38    <-- DIS
     242       2.92096802       2.92078932       6.118E-05      0.38    <-- DIS
     243       2.92086635       2.92069127       5.995E-05      0.38    <-- DIS
     244       2.92076674       2.92059520       5.873E-05      0.39    <-- DIS
     245       2.92066914       2.92050108       5.755E-05      0.39    <-- DIS
     246       2.92057352       2.92040886       5.638E-05      0.39    <-- DIS
     247       2.92047984       2.92031851       5.525E-05      0.39    <-- DIS
     248       2.92038805       2.92022998       5.413E-05      0.39    <-- DIS
     249       2.92029812       2.92014325       5.304E-05      0.39    <-- DIS
     250       2.92021001       2.92005826       5.197E-05      0.40    <-- DIS
     251       2.92012367       2.91997500       5.092E-05      0.40    <-- DIS
     252       2.92003909       2.91989342       4.989E-05      0.40    <-- DIS
     253       2.91995621       2.91981349       4.888E-05      0.40    <-- DIS
     254       2.91987501       2.91973517       4.789E-05      0.40    <-- DIS
     255       2.91979545       2.91965843       4.693E-05      0.40    <-- DIS
     256       2.91971750       2.91958325       4.598E-05      0.40    <-- DIS
     257       2.91964112       2.91950958       4.505E-05      0.41    <-- DIS
     258       2.91956628       2.91943740       4.415E-05      0.41    <-- DIS
     259       2.91949296       2.91936668       4.325E-05      0.41    <-- DIS
     260       2.91942111       2.91929739       4.238E-05      0.41    <-- DIS
     261       2.91935072       2.91922949       4.153E-05      0.41    <-- DIS
     262       2.91928175       2.91916296       4.069E-05      0.41    <-- DIS
     263       2.91921416       2.91909778       3.987E-05      0.42    <-- DIS
     264       2.91914795       2.91903391       3.907E-05      0.42    <-- DIS
     265       2.91908307       2.91897133       3.828E-05      0.42    <-- DIS
     266       2.91901949       2.91891001       3.751E-05      0.42    <-- DIS
     267       2.91895720       2.91884993       3.675E-05      0.42    <-- DIS
     268       2.91889617       2.91879105       3.601E-05      0.42    <-- DIS
     269       2.91883636       2.91873337       3.529E-05      0.42    <-- DIS
     270       2.91877777       2.91867685       3.458E-05      0.43    <-- DIS
     271       2.91872035       2.91862147       3.388E-05      0.43    <-- DIS
     272       2.91866409       2.91856720       3.320E-05      0.43    <-- DIS
     273       2.91860896       2.91851402       3.253E-05      0.43    <-- DIS
     274       2.91855495       2.91846192       3.188E-05      0.43    <-- DIS
     275       2.91850202       2.91841087       3.123E-05      0.43    <-- DIS
     276       2.91845016       2.91836084       3.061E-05      0.44    <-- DIS
     277       2.91839934       2.91831182       2.999E-05      0.44    <-- DIS
     278       2.91834955       2.91826379       2.939E-05      0.44    <-- DIS
     279       2.91830076       2.91821673       2.880E-05      0.44    <-- DIS
     280       2.91825295       2.91817061       2.822E-05      0.44    <-- DIS
     281       2.91820610       2.91812542       2.765E-05      0.45    <-- DIS
     282       2.91816020       2.91808114       2.709E-05      0.45    <-- DIS
     283       2.91811522       2.91803775       2.655E-05      0.45    <-- DIS
     284       2.91807114       2.91799523       2.601E-05      0.45    <-- DIS
     285       2.91802795       2.91795357       2.549E-05      0.45    <-- DIS
     286       2.91798563       2.91791274       2.498E-05      0.45    <-- DIS
     287       2.91794416       2.91787274       2.448E-05      0.45    <-- DIS
     288       2.91790353       2.91783354       2.399E-05      0.46    <-- DIS
     289       2.91786371       2.91779513       2.350E-05      0.46    <-- DIS
     290       2.91782469       2.91775749       2.303E-05      0.46    <-- DIS
     291       2.91778646       2.91772061       2.257E-05      0.46    <-- DIS
     292       2.91774899       2.91768446       2.212E-05      0.46    <-- DIS
     293       2.91771228       2.91764905       2.167E-05      0.46    <-- DIS
     294       2.91767630       2.91761434       2.124E-05      0.46    <-- DIS
     295       2.91764105       2.91758033       2.081E-05      0.47    <-- DIS
     296       2.91760651       2.91754701       2.039E-05      0.47    <-- DIS
     297       2.91757266       2.91751435       1.998E-05      0.47    <-- DIS
     298       2.91753948       2.91748235       1.958E-05      0.47    <-- DIS
     299       2.91750698       2.91745099       1.919E-05      0.47    <-- DIS
     300       2.91747513       2.91742027       1.880E-05      0.47    <-- DIS
     301       2.91744391       2.91739015       1.843E-05      0.48    <-- DIS
     302       2.91741333       2.91736064       1.806E-05      0.48    <-- DIS
     303       2.91738335       2.91733173       1.770E-05      0.48    <-- DIS
     304       2.91735398       2.91730339       1.734E-05      0.48    <-- DIS
     305       2.91732520       2.91727562       1.699E-05      0.48    <-- DIS
     306       2.91729699       2.91724841       1.665E-05      0.48    <-- DIS
     307       2.91726935       2.91722175       1.632E-05      0.49    <-- DIS
     308       2.91724227       2.91719561       1.599E-05      0.49    <-- DIS
     309       2.91721572       2.91717001       1.567E-05      0.49    <-- DIS
     310       2.91718971       2.91714491       1.536E-05      0.49    <-- DIS
     311       2.91716422       2.91712032       1.505E-05      0.49    <-- DIS
     312       2.91713924       2.91709622       1.475E-05      0.49    <-- DIS
     313       2.91711477       2.91707261       1.445E-05      0.49    <-- DIS
     314       2.91709078       2.91704946       1.416E-05      0.50    <-- DIS
     315       2.91706727       2.91702678       1.388E-05      0.50    <-- DIS
     316       2.91704424       2.91700456       1.360E-05      0.50    <-- DIS
     317       2.91702166       2.91698278       1.333E-05      0.50    <-- DIS
     318       2.91699954       2.91696143       1.306E-05      0.50    <-- DIS
     319       2.91697786       2.91694052       1.280E-05      0.50    <-- DIS
     320       2.91695661       2.91692002       1.255E-05      0.51    <-- DIS
     321       2.91693579       2.91689993       1.229E-05      0.51    <-- DIS
     322       2.91691539       2.91688024       1.205E-05      0.51    <-- DIS
     323       2.91689539       2.91686095       1.181E-05      0.51    <-- DIS
     324       2.91687580       2.91684204       1.157E-05      0.51    <-- DIS
     325       2.91685659       2.91682352       1.134E-05      0.51    <-- DIS
     326       2.91683777       2.91680536       1.111E-05      0.51    <-- DIS
     327       2.91681933       2.91678756       1.089E-05      0.52    <-- DIS
     328       2.91680126       2.91677012       1.067E-05      0.52    <-- DIS
     329       2.91678354       2.91675303       1.046E-05      0.52    <-- DIS
     330       2.91676618       2.91673628       1.025E-05      0.52    <-- DIS
     331       2.91674917       2.91671987       1.005E-05      0.52    <-- DIS
     332       2.91673250       2.91670378       9.845E-06      0.52    <-- DIS
     333       2.91671616       2.91668802       9.649E-06      0.53    <-- DIS
     334       2.91670015       2.91667257       9.456E-06      0.53    <-- DIS
     335       2.91668446       2.91665743       9.267E-06      0.53    <-- DIS
     336       2.91666908       2.91664259       9.082E-06      0.53    <-- DIS
     337       2.91665401       2.91662805       8.901E-06      0.53    <-- DIS
     338       2.91663923       2.91661379       8.723E-06      0.53    <-- DIS
     339       2.91662476       2.91659982       8.549E-06      0.53    <-- DIS
     340       2.91661057       2.91658614       8.378E-06      0.54    <-- DIS
     341       2.91659667       2.91657272       8.211E-06      0.54    <-- DIS
     342       2.91658304       2.91655957       8.047E-06      0.54    <-- DIS
     343       2.91656969       2.91654669       7.887E-06      0.54    <-- DIS
     344       2.91655660       2.91653406       7.730E-06      0.54    <-- DIS
     345       2.91654377       2.91652168       7.575E-06      0.54    <-- DIS
     346       2.91653120       2.91650955       7.424E-06      0.55    <-- DIS
     347       2.91651888       2.91649766       7.276E-06      0.55    <-- DIS
     348       2.91650681       2.91648601       7.131E-06      0.55    <-- DIS
     349       2.91649497       2.91647459       6.989E-06      0.55    <-- DIS
     350       2.91648338       2.91646340       6.850E-06      0.55    <-- DIS
     351       2.91647201       2.91645243       6.713E-06      0.55    <-- DIS
     352       2.91646087       2.91644168       6.579E-06      0.55    <-- DIS
     353       2.91644995       2.91643115       6.448E-06      0.56    <-- DIS
     354       2.91643925       2.91642082       6.320E-06      0.56    <-- DIS
     355       2.91642877       2.91641070       6.194E-06      0.56    <-- DIS
     356       2.91641849       2.91640078       6.071E-06      0.56    <-- DIS
     357       2.91640841       2.91639106       5.950E-06      0.56    <-- DIS
     358       2.91639854       2.91638153       5.831E-06      0.56    <-- DIS
     359       2.91638886       2.91637220       5.715E-06      0.57    <-- DIS
     360       2.91637938       2.91636304       5.601E-06      0.57    <-- DIS
     361       2.91637009       2.91635408       5.490E-06      0.57    <-- DIS
     362       2.91636098       2.91634528       5.381E-06      0.57    <-- DIS
     363       2.91635205       2.91633667       5.274E-06      0.57    <-- DIS
     364       2.91634330       2.91632822       5.169E-06      0.57    <-- DIS
     365       2.91633472       2.91631995       5.066E-06      0.57    <-- DIS
     366       2.91632631       2.91631183       4.965E-06      0.58    <-- DIS
     367       2.91631808       2.91630388       4.866E-06      0.58    <-- DIS
     368       2.91631000       2.91629609       4.770E-06      0.58    <-- DIS
     369       2.91630209       2.91628845       4.675E-06      0.58    <-- DIS
     370       2.91629433       2.91628097       4.582E-06      0.58    <-- DIS
     371       2.91628673       2.91627363       4.491E-06      0.58    <-- DIS
     372       2.91627927       2.91626644       4.402E-06      0.59    <-- DIS
     373       2.91627197       2.91625939       4.314E-06      0.59    <-- DIS
     374       2.91626481       2.91625248       4.228E-06      0.59    <-- DIS
     375       2.91625780       2.91624571       4.144E-06      0.59    <-- DIS
     376       2.91625092       2.91623907       4.062E-06      0.59    <-- DIS
     377       2.91624418       2.91623257       3.981E-06      0.59    <-- DIS
     378       2.91623757       2.91622619       3.902E-06      0.59    <-- DIS
     379       2.91623110       2.91621994       3.825E-06      0.60    <-- DIS
     380       2.91622475       2.91621382       3.749E-06      0.60    <-- DIS
     381       2.91621853       2.91620781       3.675E-06      0.60    <-- DIS
     382       2.91621243       2.91620193       3.602E-06      0.60    <-- DIS
     383       2.91620646       2.91619616       3.530E-06      0.60    <-- DIS
     384       2.91620060       2.91619051       3.460E-06      0.60    <-- DIS
     385       2.91619486       2.91618497       3.391E-06      0.61    <-- DIS
     386       2.91618923       2.91617954       3.324E-06      0.61    <-- DIS
     387       2.91618372       2.91617421       3.258E-06      0.61    <-- DIS
     388       2.91617831       2.91616900       3.194E-06      0.61    <-- DIS
     389       2.91617301       2.91616388       3.130E-06      0.61    <-- DIS
     390       2.91616782       2.91615887       3.068E-06      0.61    <-- DIS
     391       2.91616272       2.91615395       3.007E-06      0.61    <-- DIS
     392       2.91615773       2.91614914       2.948E-06      0.62    <-- DIS
     393       2.91615284       2.91614442       2.889E-06      0.62    <-- DIS
     394       2.91614805       2.91613979       2.832E-06      0.62    <-- DIS
     395       2.91614335       2.91613525       2.776E-06      0.62    <-- DIS
     396       2.91613874       2.91613081       2.721E-06      0.62    <-- DIS
     397       2.91613423       2.91612645       2.667E-06      0.62    <-- DIS
     398       2.91612980       2.91612218       2.614E-06      0.63    <-- DIS
     399       2.91612547       2.91611799       2.563E-06      0.63    <-- DIS
     400       2.91612121       2.91611389       2.512E-06      0.63    <-- DIS
     401       2.91611705       2.91610987       2.462E-06      0.63    <-- DIS
     402       2.91611296       2.91610592       2.413E-06      0.63    <-- DIS
     403       2.91610896       2.91610206       2.366E-06      0.63    <-- DIS
     404       2.91610503       2.91609827       2.319E-06      0.63    <-- DIS
     405       2.91610118       2.91609456       2.273E-06      0.64    <-- DIS
     406       2.91609741       2.91609092       2.228E-06      0.64    <-- DIS
     407       2.91609372       2.91608735       2.184E-06      0.64    <-- DIS
     408       2.91609009       2.91608385       2.141E-06      0.64    <-- DIS
     409       2.91608654       2.91608042       2.098E-06      0.64    <-- DIS
     410       2.91608306       2.91607706       2.057E-06      0.64    <-- DIS
     411       2.91607965       2.91607377       2.016E-06      0.65    <-- DIS
     412       2.91607630       2.91607054       1.976E-06      0.65    <-- DIS
     413       2.91607302       2.91606737       1.937E-06      0.65    <-- DIS
     414       2.91606981       2.91606427       1.899E-06      0.65    <-- DIS
     415       2.91606666       2.91606123       1.862E-06      0.65    <-- DIS
     416       2.91606357       2.91605825       1.825E-06      0.65    <-- DIS
     417       2.91606054       2.91605532       1.789E-06      0.65    <-- DIS
     418       2.91605757       2.91605246       1.753E-06      0.66    <-- DIS
     419       2.91605466       2.91604965       1.719E-06      0.66    <-- DIS
     420       2.91605181       2.91604690       1.685E-06      0.66    <-- DIS
     421       2.91604901       2.91604420       1.652E-06      0.66    <-- DIS
     422       2.91604627       2.91604155       1.619E-06      0.66    <-- DIS
     423       2.91604359       2.91603896       1.587E-06      0.66    <-- DIS
     424       2.91604095       2.91603642       1.556E-06      0.67    <-- DIS
     425       2.91603837       2.91603393       1.525E-06      0.67    <-- DIS
     426       2.91603584       2.91603148       1.495E-06      0.67    <-- DIS
     427       2.91603336       2.91602909       1.465E-06      0.67    <-- DIS
     428       2.91603093       2.91602674       1.437E-06      0.67    <-- DIS
     429       2.91602855       2.91602444       1.408E-06      0.67    <-- DIS
     430       2.91602621       2.91602219       1.380E-06      0.67    <-- DIS
     431       2.91602392       2.91601997       1.353E-06      0.68    <-- DIS
     432       2.91602168       2.91601781       1.327E-06      0.68    <-- DIS
     433       2.91601947       2.91601568       1.300E-06      0.68    <-- DIS
     434       2.91601732       2.91601360       1.275E-06      0.68    <-- DIS
     435       2.91601520       2.91601156       1.250E-06      0.68    <-- DIS
     436       2.91601313       2.91600956       1.225E-06      0.68    <-- DIS
     437       2.91601110       2.91600759       1.201E-06      0.69    <-- DIS
     438       2.91600910       2.91600567       1.177E-06      0.69    <-- DIS
     439       2.91600715       2.91600378       1.154E-06      0.69    <-- DIS
     440       2.91600523       2.91600194       1.131E-06      0.69    <-- DIS
     441       2.91600336       2.91600012       1.109E-06      0.69    <-- DIS
     442       2.91600152       2.91599835       1.087E-06      0.69    <-- DIS
     443       2.91599971       2.91599660       1.066E-06      0.69    <-- DIS
     444       2.91599794       2.91599490       1.045E-06      0.70    <-- DIS
     445       2.91599621       2.91599322       1.024E-06      0.70    <-- DIS
     446       2.91599451       2.91599158       1.004E-06      0.70    <-- DIS
     447       2.91599284       2.91598997       9.844E-07      0.70    <-- DIS
     448       2.91599121       2.91598840       9.651E-07      0.70    <-- DIS
     449       2.91598961       2.91598685       9.461E-07      0.70    <-- DIS
     450       2.91598804       2.91598534       9.275E-07      0.70    <-- DIS
     451       2.91598650       2.91598385       9.093E-07      0.71    <-- DIS
     452       2.91598499       2.91598239       8.914E-07      0.71    <-- DIS
     453       2.91598351       2.91598097       8.739E-07      0.71    <-- DIS
     454       2.91598206       2.91597957       8.567E-07      0.71    <-- DIS
     455       2.91598064       2.91597819       8.399E-07      0.71    <-- DIS
     456       2.91597925       2.91597685       8.234E-07      0.71    <-- DIS
     457       2.91597788       2.91597553       8.072E-07      0.72    <-- DIS
     458       2.91597654       2.91597424       7.914E-07      0.72    <-- DIS
     459       2.91597523       2.91597297       7.758E-07      0.72    <-- DIS
     460       2.91597394       2.91597172       7.606E-07      0.72    <-- DIS
     461       2.91597268       2.91597051       7.457E-07      0.72    <-- DIS
     462       2.91597144       2.91596931       7.310E-07      0.72    <-- DIS
     463       2.91597023       2.91596814       7.167E-07      0.72    <-- DIS
     464       2.91596904       2.91596699       7.026E-07      0.73    <-- DIS
     465       2.91596788       2.91596587       6.888E-07      0.73    <-- DIS
     466       2.91596673       2.91596476       6.753E-07      0.73    <-- DIS
     467       2.91596561       2.91596368       6.621E-07      0.73    <-- DIS
     468       2.91596451       2.91596262       6.491E-07      0.73    <-- DIS
     469       2.91596344       2.91596158       6.364E-07      0.73    <-- DIS
     470       2.91596238       2.91596056       6.239E-07      0.74    <-- DIS
     471       2.91596135       2.91595956       6.117E-07      0.74    <-- DIS
     472       2.91596033       2.91595858       5.997E-07      0.74    <-- DIS
     473       2.91595934       2.91595762       5.879E-07      0.74    <-- DIS
     474       2.91595836       2.91595668       5.764E-07      0.74    <-- DIS
     475       2.91595740       2.91595576       5.651E-07      0.74    <-- DIS
     476       2.91595647       2.91595485       5.540E-07      0.74    <-- DIS
     477       2.91595555       2.91595396       5.432E-07      0.75    <-- DIS
     478       2.91595465       2.91595309       5.326E-07      0.75    <-- DIS
     479       2.91595376       2.91595224       5.221E-07      0.75    <-- DIS
     480       2.91595290       2.91595140       5.119E-07      0.75    <-- DIS
     481       2.91595205       2.91595058       5.019E-07      0.75    <-- DIS
     482       2.91595121       2.91594978       4.921E-07      0.75    <-- DIS
     483       2.91595040       2.91594899       4.824E-07      0.76    <-- DIS
     484       2.91594960       2.91594822       4.730E-07      0.76    <-- DIS
     485       2.91594881       2.91594746       4.638E-07      0.76    <-- DIS
     486       2.91594804       2.91594672       4.547E-07      0.76    <-- DIS
     487       2.91594729       2.91594599       4.458E-07      0.76    <-- DIS
     488       2.91594655       2.91594527       4.371E-07      0.76    <-- DIS
     489       2.91594582       2.91594457       4.285E-07      0.76    <-- DIS
     490       2.91594511       2.91594389       4.202E-07      0.77    <-- DIS
     491       2.91594441       2.91594321       4.119E-07      0.77    <-- DIS
     492       2.91594373       2.91594255       4.039E-07      0.77    <-- DIS
     493       2.91594306       2.91594191       3.960E-07      0.77    <-- DIS
     494       2.91594240       2.91594127       3.883E-07      0.77    <-- DIS
     495       2.91594176       2.91594065       3.807E-07      0.77    <-- DIS
     496       2.91594113       2.91594004       3.732E-07      0.77    <-- DIS
     497       2.91594051       2.91593944       3.660E-07      0.78    <-- DIS
     498       2.91593990       2.91593886       3.588E-07      0.78    <-- DIS
     499       2.91593931       2.91593828       3.518E-07      0.78    <-- DIS
     500       2.91593872       2.91593772       3.449E-07      0.78    <-- DIS
     501       2.91593815       2.91593716       3.382E-07      0.78    <-- DIS
     502       2.91593759       2.91593662       3.316E-07      0.78    <-- DIS
     503       2.91593704       2.91593609       3.251E-07      0.79    <-- DIS
     504       2.91593650       2.91593557       3.188E-07      0.79    <-- DIS
     505       2.91593597       2.91593506       3.126E-07      0.79    <-- DIS
     506       2.91593545       2.91593456       3.065E-07      0.79    <-- DIS
     507       2.91593494       2.91593407       3.005E-07      0.79    <-- DIS
     508       2.91593444       2.91593359       2.946E-07      0.79    <-- DIS
     509       2.91593396       2.91593311       2.889E-07      0.79    <-- DIS
     510       2.91593348       2.91593265       2.833E-07      0.80    <-- DIS
     511       2.91593301       2.91593220       2.778E-07      0.80    <-- DIS
     512       2.91593255       2.91593175       2.723E-07      0.80    <-- DIS
     513       2.91593209       2.91593131       2.670E-07      0.80    <-- DIS
     514       2.91593165       2.91593089       2.618E-07      0.80    <-- DIS
     515       2.91593122       2.91593047       2.567E-07      0.80    <-- DIS
     516       2.91593079       2.91593006       2.517E-07      0.81    <-- DIS
     517       2.91593037       2.91592965       2.468E-07      0.81    <-- DIS
     518       2.91592996       2.91592926       2.420E-07      0.81    <-- DIS
     519       2.91592956       2.91592887       2.373E-07      0.81    <-- DIS
     520       2.91592917       2.91592849       2.327E-07      0.81    <-- DIS
     521       2.91592878       2.91592812       2.282E-07      0.81    <-- DIS
     522       2.91592840       2.91592775       2.237E-07      0.81    <-- DIS
     523       2.91592803       2.91592739       2.194E-07      0.82    <-- DIS
     524       2.91592767       2.91592704       2.151E-07      0.82    <-- DIS
     525       2.91592731       2.91592670       2.109E-07      0.82    <-- DIS
     526       2.91592696       2.91592636       2.068E-07      0.82    <-- DIS
     527       2.91592662       2.91592603       2.028E-07      0.82    <-- DIS
     528       2.91592628       2.91592570       1.989E-07      0.82    <-- DIS
     529       2.91592595       2.91592538       1.950E-07      0.83    <-- DIS
     530       2.91592563       2.91592507       1.912E-07      0.83    <-- DIS
     531       2.91592531       2.91592476       1.875E-07      0.83    <-- DIS
     532       2.91592500       2.91592446       1.839E-07      0.83    <-- DIS
     533       2.91592469       2.91592417       1.803E-07      0.83    <-- DIS
     534       2.91592439       2.91592388       1.768E-07      0.83    <-- DIS
     535       2.91592410       2.91592360       1.733E-07      0.83    <-- DIS
     536       2.91592381       2.91592332       1.700E-07      0.84    <-- DIS
     537       2.91592353       2.91592305       1.667E-07      0.84    <-- DIS
     538       2.91592326       2.91592278       1.634E-07      0.84    <-- DIS
     539       2.91592298       2.91592252       1.603E-07      0.84    <-- DIS
     540       2.91592272       2.91592226       1.572E-07      0.84    <-- DIS
     541       2.91592246       2.91592201       1.541E-07      0.84    <-- DIS
     542       2.91592220       2.91592176       1.511E-07      0.84    <-- DIS
     543       2.91592195       2.91592152       1.482E-07      0.85    <-- DIS
     544       2.91592170       2.91592128       1.453E-07      0.85    <-- DIS
     545       2.91592146       2.91592105       1.425E-07      0.85    <-- DIS
     546       2.91592123       2.91592082       1.397E-07      0.85    <-- DIS
     547       2.91592100       2.91592060       1.370E-07      0.85    <-- DIS
     548       2.91592077       2.91592038       1.344E-07      0.85    <-- DIS
     549       2.91592054       2.91592016       1.318E-07      0.86    <-- DIS
     550       2.91592033       2.91591995       1.292E-07      0.86    <-- DIS
     551       2.91592011       2.91591974       1.267E-07      0.86    <-- DIS
     552       2.91591990       2.91591954       1.243E-07      0.86    <-- DIS
     553       2.91591970       2.91591934       1.219E-07      0.86    <-- DIS
     554       2.91591949       2.91591914       1.195E-07      0.86    <-- DIS
     555       2.91591930       2.91591895       1.172E-07      0.86    <-- DIS
     556       2.91591910       2.91591877       1.149E-07      0.87    <-- DIS
     557       2.91591891       2.91591858       1.127E-07      0.87    <-- DIS
     558       2.91591872       2.91591840       1.105E-07      0.87    <-- DIS
     559       2.91591854       2.91591822       1.084E-07      0.87    <-- DIS
     560       2.91591836       2.91591805       1.063E-07      0.87    <-- DIS
     561       2.91591818       2.91591788       1.042E-07      0.87    <-- DIS
     562       2.91591801       2.91591771       1.022E-07      0.88    <-- DIS
     563       2.91591784       2.91591755       1.002E-07      0.88    <-- DIS
     564       2.91591767       2.91591739       9.829E-08      0.88    <-- DIS
     565       2.91591751       2.91591723       9.639E-08      0.88    <-- DIS
     566       2.91591735       2.91591708       9.453E-08      0.88    <-- DIS
     567       2.91591719       2.91591692       9.270E-08      0.88    <-- DIS
     568       2.91591704       2.91591678       9.091E-08      0.88    <-- DIS
     569       2.91591689       2.91591663       8.915E-08      0.89    <-- DIS
     570       2.91591674       2.91591649       8.743E-08      0.89    <-- DIS
     571       2.91591660       2.91591635       8.574E-08      0.89    <-- DIS
     572       2.91591645       2.91591621       8.409E-08      0.89    <-- DIS
     573       2.91591632       2.91591607       8.246E-08      0.89    <-- DIS
     574       2.91591618       2.91591594       8.087E-08      0.89    <-- DIS
     575       2.91591604       2.91591581       7.931E-08      0.89    <-- DIS
     576       2.91591591       2.91591569       7.778E-08      0.90    <-- DIS
     577       2.91591578       2.91591556       7.628E-08      0.90    <-- DIS
     578       2.91591566       2.91591544       7.481E-08      0.90    <-- DIS
     579       2.91591553       2.91591532       7.336E-08      0.90    <-- DIS
     580       2.91591541       2.91591520       7.195E-08      0.90    <-- DIS
     581       2.91591529       2.91591509       7.056E-08      0.90    <-- DIS
     582       2.91591517       2.91591497       6.920E-08      0.91    <-- DIS
     583       2.91591506       2.91591486       6.787E-08      0.91    <-- DIS
     584       2.91591495       2.91591475       6.656E-08      0.91    <-- DIS
     585       2.91591484       2.91591465       6.527E-08      0.91    <-- DIS
     586       2.91591473       2.91591454       6.402E-08      0.91    <-- DIS
     587       2.91591462       2.91591444       6.278E-08      0.91    <-- DIS
     588       2.91591452       2.91591434       6.157E-08      0.91    <-- DIS
     589       2.91591442       2.91591424       6.039E-08      0.92    <-- DIS
     590       2.91591432       2.91591414       5.922E-08      0.92    <-- DIS
     591       2.91591422       2.91591405       5.808E-08      0.92    <-- DIS
     592       2.91591412       2.91591395       5.697E-08      0.92    <-- DIS
     593       2.91591403       2.91591386       5.587E-08      0.92    <-- DIS
     594       2.91591393       2.91591377       5.479E-08      0.92    <-- DIS
     595       2.91591384       2.91591369       5.374E-08      0.93    <-- DIS
     596       2.91591375       2.91591360       5.271E-08      0.93    <-- DIS
     597       2.91591367       2.91591352       5.169E-08      0.93    <-- DIS
     598       2.91591358       2.91591343       5.070E-08      0.93    <-- DIS
     599       2.91591350       2.91591335       4.972E-08      0.93    <-- DIS
     600       2.91591341       2.91591327       4.877E-08      0.93    <-- DIS
     601       2.91591333       2.91591319       4.783E-08      0.93    <-- DIS
     602       2.91591325       2.91591312       4.691E-08      0.94    <-- DIS
     603       2.91591318       2.91591304       4.601E-08      0.94    <-- DIS
     604       2.91591310       2.91591297       4.512E-08      0.94    <-- DIS
     605       2.91591302       2.91591290       4.426E-08      0.94    <-- DIS
     606       2.91591295       2.91591282       4.341E-08      0.94    <-- DIS
     607       2.91591288       2.91591275       4.257E-08      0.94    <-- DIS
     608       2.91591281       2.91591269       4.175E-08      0.95    <-- DIS
     609       2.91591274       2.91591262       4.095E-08      0.95    <-- DIS
     610       2.91591267       2.91591255       4.017E-08      0.95    <-- DIS
     611       2.91591260       2.91591249       3.939E-08      0.95    <-- DIS
     612       2.91591254       2.91591243       3.864E-08      0.95    <-- DIS
     613       2.91591248       2.91591236       3.790E-08      0.95    <-- DIS
     614       2.91591241       2.91591230       3.717E-08      0.95    <-- DIS
     615       2.91591235       2.91591224       3.646E-08      0.96    <-- DIS
     616       2.91591229       2.91591219       3.576E-08      0.96    <-- DIS
     617       2.91591223       2.91591213       3.507E-08      0.96    <-- DIS
     618       2.91591217       2.91591207       3.440E-08      0.96    <-- DIS
     619       2.91591212       2.91591202       3.374E-08      0.96    <-- DIS
     620       2.91591206       2.91591196       3.309E-08      0.96    <-- DIS
     621       2.91591200       2.91591191       3.246E-08      0.96    <-- DIS
     622       2.91591195       2.91591186       3.184E-08      0.97    <-- DIS
     623       2.91591190       2.91591181       3.123E-08      0.97    <-- DIS
     624       2.91591185       2.91591176       3.063E-08      0.97    <-- DIS
     625       2.91591180       2.91591171       3.004E-08      0.97    <-- DIS
     626       2.91591175       2.91591166       2.946E-08      0.97    <-- DIS
     627       2.91591170       2.91591161       2.890E-08      0.97    <-- DIS
     628       2.91591165       2.91591157       2.835E-08      0.98    <-- DIS
     629       2.91591160       2.91591152       2.780E-08      0.98    <-- DIS
     630       2.91591156       2.91591148       2.727E-08      0.98    <-- DIS
     631       2.91591151       2.91591143       2.675E-08      0.98    <-- DIS
     632       2.91591147       2.91591139       2.624E-08      0.98    <-- DIS
     633       2.91591142       2.91591135       2.574E-08      0.98    <-- DIS
     634       2.91591138       2.91591131       2.524E-08      0.98    <-- DIS
     635       2.91591134       2.91591127       2.476E-08      0.99    <-- DIS
     636       2.91591130       2.91591123       2.429E-08      0.99    <-- DIS
     637       2.91591126       2.91591119       2.382E-08      0.99    <-- DIS
     638       2.91591122       2.91591115       2.337E-08      0.99    <-- DIS
     639       2.91591118       2.91591111       2.292E-08      0.99    <-- DIS
     640       2.91591114       2.91591107       2.248E-08      0.99    <-- DIS
     641       2.91591110       2.91591104       2.205E-08      1.00    <-- DIS
     642       2.91591107       2.91591100       2.163E-08      1.00    <-- DIS
     643       2.91591103       2.91591097       2.122E-08      1.00    <-- DIS
     644       2.91591099       2.91591093       2.081E-08      1.00    <-- DIS
     645       2.91591096       2.91591090       2.041E-08      1.00    <-- DIS
     646       2.91591093       2.91591087       2.002E-08      1.00    <-- DIS
     647       2.91591089       2.91591084       1.964E-08      1.00    <-- DIS
     648       2.91591086       2.91591080       1.927E-08      1.01    <-- DIS
     649       2.91591083       2.91591077       1.890E-08      1.01    <-- DIS
     650       2.91591080       2.91591074       1.854E-08      1.01    <-- DIS
     651       2.91591077       2.91591071       1.818E-08      1.01    <-- DIS
     652       2.91591074       2.91591068       1.784E-08      1.01    <-- DIS
     653       2.91591071       2.91591066       1.750E-08      1.01    <-- DIS
     654       2.91591068       2.91591063       1.716E-08      1.02    <-- DIS
     655       2.91591065       2.91591060       1.684E-08      1.02    <-- DIS
     656       2.91591062       2.91591057       1.652E-08      1.02    <-- DIS
     657       2.91591059       2.91591055       1.620E-08      1.02    <-- DIS
     658       2.91591057       2.91591052       1.589E-08      1.02    <-- DIS
     659       2.91591054       2.91591050       1.559E-08      1.02    <-- DIS
     660       2.91591051       2.91591047       1.529E-08      1.02    <-- DIS
     661       2.91591049       2.91591045       1.500E-08      1.03    <-- DIS
     662       2.91591046       2.91591042       1.471E-08      1.03    <-- DIS
     663       2.91591044       2.91591040       1.443E-08      1.03    <-- DIS
     664       2.91591042       2.91591037       1.416E-08      1.03    <-- DIS
     665       2.91591039       2.91591035       1.389E-08      1.03    <-- DIS
     666       2.91591037       2.91591033       1.362E-08      1.03    <-- DIS
     667       2.91591035       2.91591031       1.337E-08      1.04    <-- DIS
     668       2.91591032       2.91591029       1.311E-08      1.04    <-- DIS
     669       2.91591030       2.91591027       1.286E-08      1.04    <-- DIS
     670       2.91591028       2.91591024       1.262E-08      1.04    <-- DIS
     671       2.91591026       2.91591022       1.238E-08      1.04    <-- DIS
     672       2.91591024       2.91591020       1.214E-08      1.04    <-- DIS
     673       2.91591022       2.91591019       1.191E-08      1.04    <-- DIS
     674       2.91591020       2.91591017       1.168E-08      1.05    <-- DIS
     675       2.91591018       2.91591015       1.146E-08      1.05    <-- DIS
     676       2.91591016       2.91591013       1.124E-08      1.05    <-- DIS
     677       2.91591014       2.91591011       1.103E-08      1.05    <-- DIS
     678       2.91591012       2.91591009       1.082E-08      1.05    <-- DIS
     679       2.91591011       2.91591008       1.061E-08      1.05    <-- DIS
     680       2.91591009       2.91591006       1.041E-08      1.05    <-- DIS
     681       2.91591007       2.91591004       1.021E-08      1.06    <-- DIS
     682       2.91591006       2.91591003       1.002E-08      1.06    <-- DIS
     683       2.91591004       2.91591001       9.830E-09      1.06    <-- DIS
     684       2.91591002       2.91590999       9.644E-09      1.06    <-- DIS
     685       2.91591001       2.91590998       9.460E-09      1.06    <-- DIS
     686       2.91590999       2.91590996       9.281E-09      1.06    <-- DIS
     687       2.91590998       2.91590995       9.105E-09      1.07    <-- DIS
     688       2.91590996       2.91590993       8.932E-09      1.07    <-- DIS
     689       2.91590995       2.91590992       8.762E-09      1.07    <-- DIS
     690       2.91590993       2.91590991       8.596E-09      1.07    <-- DIS
     691       2.91590992       2.91590989       8.433E-09      1.07    <-- DIS
     692       2.91590990       2.91590988       8.273E-09      1.07    <-- DIS
     693       2.91590989       2.91590986       8.116E-09      1.07    <-- DIS
     694       2.91590988       2.91590985       7.962E-09      1.08    <-- DIS
     695       2.91590986       2.91590984       7.811E-09      1.08    <-- DIS
     696       2.91590985       2.91590983       7.663E-09      1.08    <-- DIS
     697       2.91590984       2.91590981       7.518E-09      1.08    <-- DIS
     698       2.91590982       2.91590980       7.375E-09      1.08    <-- DIS
     699       2.91590981       2.91590979       7.235E-09      1.08    <-- DIS
     700       2.91590980       2.91590978       7.098E-09      1.09    <-- DIS
     701       2.91590979       2.91590977       6.964E-09      1.09    <-- DIS
     702       2.91590978       2.91590976       6.832E-09      1.09    <-- DIS
     703       2.91590976       2.91590975       6.703E-09      1.09    <-- DIS
     704       2.91590975       2.91590973       6.576E-09      1.09    <-- DIS
     705       2.91590974       2.91590972       6.451E-09      1.09    <-- DIS
     706       2.91590973       2.91590971       6.329E-09      1.09    <-- DIS
     707       2.91590972       2.91590970       6.209E-09      1.10    <-- DIS
     708       2.91590971       2.91590969       6.092E-09      1.10    <-- DIS
     709       2.91590970       2.91590968       5.976E-09      1.10    <-- DIS
     710       2.91590969       2.91590967       5.863E-09      1.10    <-- DIS
     711       2.91590968       2.91590966       5.752E-09      1.10    <-- DIS
     712       2.91590967       2.91590966       5.644E-09      1.10    <-- DIS
     713       2.91590966       2.91590965       5.537E-09      1.11    <-- DIS
     714       2.91590965       2.91590964       5.432E-09      1.11    <-- DIS
     715       2.91590964       2.91590963       5.329E-09      1.11    <-- DIS
     716       2.91590964       2.91590962       5.229E-09      1.11    <-- DIS
     717       2.91590963       2.91590961       5.130E-09      1.11    <-- DIS
     718       2.91590962       2.91590960       5.033E-09      1.11    <-- DIS
     719       2.91590961       2.91590960       4.938E-09      1.11    <-- DIS
     720       2.91590960       2.91590959       4.844E-09      1.12    <-- DIS
     721       2.91590959       2.91590958       4.753E-09      1.12    <-- DIS
     722       2.91590959       2.91590957       4.663E-09      1.12    <-- DIS
     723       2.91590958       2.91590956       4.575E-09      1.12    <-- DIS
     724       2.91590957       2.91590956       4.489E-09      1.12    <-- DIS
     725       2.91590956       2.91590955       4.404E-09      1.12    <-- DIS
     726       2.91590956       2.91590954       4.321E-09      1.13    <-- DIS
     727       2.91590955       2.91590954       4.239E-09      1.13    <-- DIS
     728       2.91590954       2.91590953       4.159E-09      1.13    <-- DIS
     729       2.91590953       2.91590952       4.081E-09      1.13    <-- DIS
     730       2.91590953       2.91590952       4.004E-09      1.13    <-- DIS
     731       2.91590952       2.91590951       3.928E-09      1.13    <-- DIS
     732       2.91590951       2.91590950       3.854E-09      1.13    <-- DIS
     733       2.91590951       2.91590950       3.781E-09      1.14    <-- DIS
     734       2.91590950       2.91590949       3.710E-09      1.14    <-- DIS
     735       2.91590950       2.91590949       3.640E-09      1.14    <-- DIS
     736       2.91590949       2.91590948       3.572E-09      1.14    <-- DIS
     737       2.91590948       2.91590947       3.504E-09      1.14    <-- DIS
     738       2.91590948       2.91590947       3.438E-09      1.14    <-- DIS
     739       2.91590947       2.91590946       3.373E-09      1.15    <-- DIS
     740       2.91590947       2.91590946       3.310E-09      1.15    <-- DIS
     741       2.91590946       2.91590945       3.248E-09      1.15    <-- DIS
     742       2.91590946       2.91590945       3.186E-09      1.15    <-- DIS
     743       2.91590945       2.91590944       3.126E-09      1.15    <-- DIS
     744       2.91590945       2.91590944       3.067E-09      1.15    <-- DIS
     745       2.91590944       2.91590943       3.010E-09      1.15    <-- DIS
     746       2.91590944       2.91590943       2.953E-09      1.16    <-- DIS
     747       2.91590943       2.91590942       2.897E-09      1.16    <-- DIS
     748       2.91590943       2.91590942       2.843E-09      1.16    <-- DIS
     749       2.91590942       2.91590941       2.789E-09      1.16    <-- DIS
     750       2.91590942       2.91590941       2.737E-09      1.16    <-- DIS
     751       2.91590941       2.91590940       2.685E-09      1.16    <-- DIS
     752       2.91590941       2.91590940       2.635E-09      1.16    <-- DIS
     753       2.91590940       2.91590940       2.585E-09      1.17    <-- DIS
     754       2.91590940       2.91590939       2.537E-09      1.17    <-- DIS
     755       2.91590939       2.91590939       2.489E-09      1.17    <-- DIS
     756       2.91590939       2.91590938       2.442E-09      1.17    <-- DIS
     757       2.91590939       2.91590938       2.396E-09      1.17    <-- DIS
     758       2.91590938       2.91590938       2.351E-09      1.17    <-- DIS
     759       2.91590938       2.91590937       2.307E-09      1.18    <-- DIS
     760       2.91590937       2.91590937       2.264E-09      1.18    <-- DIS
     761       2.91590937       2.91590936       2.221E-09      1.18    <-- DIS
     762       2.91590937       2.91590936       2.180E-09      1.18    <-- DIS
     763       2.91590936       2.91590936       2.139E-09      1.18    <-- DIS
     764       2.91590936       2.91590935       2.098E-09      1.18    <-- DIS
[...]
  Sum of centres and spreads (  1.143454,  0.678359, 20.000000 )     2.92744031
 
    170    -0.269E-12     0.0000043609        2.9274403100       1.59  <-- CONV
        O_D=      0.0104021 O_OD=      0.0011290 O_TOT=      2.9274403 <-- SPRD
 Delta: O_D=  0.1752350E-11 O_OD= -0.2021634E-11 O_TOT= -0.2691181E-12 <-- DLTA
 ------------------------------------------------------------------------------
 Cycle:    171
  WF centre and spread    1  ( -0.000683, -0.000762, 10.000000 )     0.88684913
  WF centre and spread    2  (  1.144137,  0.679121, 10.000000 )     2.04059118
  Sum of centres and spreads (  1.143454,  0.678359, 20.000000 )     2.92744031
 
    171    -0.337E-12     0.0000043600        2.9274403100       1.59  <-- CONV
        O_D=      0.0104021 O_OD=      0.0011290 O_TOT=      2.9274403 <-- SPRD
 Delta: O_D=  0.2189792E-11 O_OD= -0.2526199E-11 O_TOT= -0.3366196E-12 <-- DLTA
 ------------------------------------------------------------------------------
 Cycle:    172
  WF centre and spread    1  ( -0.000683, -0.000762, 10.000000 )     0.88684913
  WF centre and spread    2  (  1.144137,  0.679121, 10.000000 )     2.04059118
  Sum of centres and spreads (  1.143454,  0.678359, 20.000000 )     2.92744031
 
    172    -0.403E-12     0.0000043588        2.9274403100       1.59  <-- CONV
        O_D=      0.0104021 O_OD=      0.0011290 O_TOT=      2.9274403 <-- SPRD
 Delta: O_D=  0.2626789E-11 O_OD= -0.3030179E-11 O_TOT= -0.4032330E-12 <-- DLTA
 ------------------------------------------------------------------------------
 Cycle:    173
  WF centre and spread    1  ( -0.000683, -0.000762, 10.000000 )     0.88684913
  WF centre and spread    2  (  1.144137,  0.679121, 10.000000 )     2.04059118
  Sum of centres and spreads (  1.143454,  0.678359, 20.000000 )     2.92744031
 
    173    -0.671E-13     0.0000043575        2.9274403100       1.59  <-- CONV
        O_D=      0.0104021 O_OD=      0.0011290 O_TOT=      2.9274403 <-- SPRD
 Delta: O_D=  0.4380177E-12 O_OD= -0.5052504E-12 O_TOT= -0.6705747E-13 <-- DLTA
 ------------------------------------------------------------------------------
 Cycle:    174
  WF centre and spread    1  ( -0.000683, -0.000762, 10.000000 )     0.88684913
  WF centre and spread    2  (  1.144137,  0.679121, 10.000000 )     2.04059118
  Sum of centres and spreads (  1.143454,  0.678359, 20.000000 )     2.92744031
 
    174    -0.135E-12     0.0000043573        2.9274403100       1.59  <-- CONV
        O_D=      0.0104021 O_OD=      0.0011290 O_TOT=      2.9274403 <-- SPRD
 Delta: O_D=  0.8759816E-12 O_OD= -0.1010428E-11 O_TOT= -0.1345590E-12 <-- DLTA
 ------------------------------------------------------------------------------
 Cycle:    175
  WF centre and spread    1  ( -0.000683, -0.000762, 10.000000 )     0.88684912
  WF centre and spread    2  (  1.144137,  0.679121, 10.000000 )     2.04059118
  Sum of centres and spreads (  1.143454,  0.678359, 20.000000 )     2.92744031
 
    175    -0.201E-12     0.0000043568        2.9274403100       1.59  <-- CONV
        O_D=      0.0104021 O_OD=      0.0011290 O_TOT=      2.9274403 <-- SPRD
 Delta: O_D=  0.1313795E-11 O_OD= -0.1515411E-11 O_TOT= -0.2011724E-12 <-- DLTA
 ------------------------------------------------------------------------------
 Cycle:    176
  WF centre and spread    1  ( -0.000683, -0.000762, 10.000000 )     0.88684912
  WF centre and spread    2  (  1.144137,  0.679121, 10.000000 )     2.04059118
  Sum of centres and spreads (  1.143454,  0.678359, 20.000000 )     2.92744031
 
    176    -0.269E-12     0.0000043562        2.9274403100       1.59  <-- CONV
        O_D=      0.0104021 O_OD=      0.0011290 O_TOT=      2.9274403 <-- SPRD
 Delta: O_D=  0.1751380E-11 O_OD= -0.2020074E-11 O_TOT= -0.2691181E-12 <-- DLTA
 ------------------------------------------------------------------------------
 Cycle:    177
  WF centre and spread    1  ( -0.000683, -0.000762, 10.000000 )     0.88684912
  WF centre and spread    2  (  1.144137,  0.679121, 10.000000 )     2.04059118
  Sum of centres and spreads (  1.143454,  0.678359, 20.000000 )     2.92744031
 
    177    -0.335E-12     0.0000043554        2.9274403100       1.59  <-- CONV
        O_D=      0.0104021 O_OD=      0.0011290 O_TOT=      2.9274403 <-- SPRD
 Delta: O_D=  0.2188616E-11 O_OD= -0.2524319E-11 O_TOT= -0.3352874E-12 <-- DLTA
 ------------------------------------------------------------------------------
 Cycle:    178
  WF centre and spread    1  ( -0.000683, -0.000762, 10.000000 )     0.88684912
  WF centre and spread    2  (  1.144137,  0.679121, 10.000000 )     2.04059118
  Sum of centres and spreads (  1.143454,  0.678359, 20.000000 )     2.92744031
 
    178    -0.403E-12     0.0000043543        2.9274403100       1.59  <-- CONV
        O_D=      0.0104021 O_OD=      0.0011290 O_TOT=      2.9274403 <-- SPRD
 Delta: O_D=  0.2625440E-11 O_OD= -0.3028016E-11 O_TOT= -0.4027889E-12 <-- DLTA
 ------------------------------------------------------------------------------
 Cycle:    179
  WF centre and spread    1  ( -0.000683, -0.000762, 10.000000 )     0.88684912
  WF centre and spread    2  (  1.144137,  0.679121, 10.000000 )     2.04059118
  Sum of centres and spreads (  1.143454,  0.678359, 20.000000 )     2.92744031
 
    179    -0.675E-13     0.0000043531        2.9274403100       1.59  <-- CONV
        O_D=      0.0104021 O_OD=      0.0011290 O_TOT=      2.9274403 <-- SPRD
 Delta: O_D=  0.4377557E-12 O_OD= -0.5048551E-12 O_TOT= -0.6750156E-13 <-- DLTA
 ------------------------------------------------------------------------------
 Cycle:    180
  WF centre and spread    1  ( -0.000683, -0.000762, 10.000000 )     0.88684912
  WF centre and spread    2  (  1.144137,  0.679121, 10.000000 )     2.04059118
  Sum of centres and spreads (  1.143454,  0.678359, 20.000000 )     2.92744031
 
    180    -0.134E-12     0.0000043529        2.9274403100       1.59  <-- CONV
        O_D=      0.0104021 O_OD=      0.0011290 O_TOT=      2.9274403 <-- SPRD
 Delta: O_D=  0.8754594E-12 O_OD= -0.1009637E-11 O_TOT= -0.1336709E-12 <-- DLTA
 ------------------------------------------------------------------------------
 Cycle:    181
  WF centre and spread    1  ( -0.000683, -0.000762, 10.000000 )     0.88684912
  WF centre and spread    2  (  1.144137,  0.679121, 10.000000 )     2.04059118
  Sum of centres and spreads (  1.143454,  0.678359, 20.000000 )     2.92744031
 
    181    -0.202E-12     0.0000043525        2.9274403100       1.59  <-- CONV
        O_D=      0.0104021 O_OD=      0.0011290 O_TOT=      2.9274403 <-- SPRD
 Delta: O_D=  0.1313033E-11 O_OD= -0.1514240E-11 O_TOT= -0.2016165E-12 <-- DLTA
 ------------------------------------------------------------------------------
 Cycle:    182
  WF centre and spread    1  ( -0.000683, -0.000762, 10.000000 )     0.88684912
  WF centre and spread    2  (  1.144137,  0.679121, 10.000000 )     2.04059118
  Sum of centres and spreads (  1.143454,  0.678359, 20.000000 )     2.92744031
 
    182    -0.268E-12     0.0000043519        2.9274403100       1.59  <-- CONV
        O_D=      0.0104021 O_OD=      0.0011290 O_TOT=      2.9274403 <-- SPRD
 Delta: O_D=  0.1750374E-11 O_OD= -0.2018551E-11 O_TOT= -0.2677858E-12 <-- DLTA
 ------------------------------------------------------------------------------
 Cycle:    183
  WF centre and spread    1  ( -0.000683, -0.000762, 10.000000 )     0.88684912
  WF centre and spread    2  (  1.144137,  0.679121, 10.000000 )     2.04059119
  Sum of centres and spreads (  1.143454,  0.678359, 20.000000 )     2.92744031
 
    183    -0.335E-12     0.0000043511        2.9274403100       1.59  <-- CONV
        O_D=      0.0104021 O_OD=      0.0011290 O_TOT=      2.9274403 <-- SPRD
 Delta: O_D=  0.2187403E-11 O_OD= -0.2522458E-11 O_TOT= -0.3352874E-12 <-- DLTA
 ------------------------------------------------------------------------------
 Cycle:    184
  WF centre and spread    1  ( -0.000683, -0.000762, 10.000000 )     0.88684912
  WF centre and spread    2  (  1.144137,  0.679121, 10.000000 )     2.04059119
  Sum of centres and spreads (  1.143454,  0.678359, 20.000000 )     2.92744031
 
    184    -0.402E-12     0.0000043501        2.9274403100       1.59  <-- CONV
        O_D=      0.0104021 O_OD=      0.0011290 O_TOT=      2.9274403 <-- SPRD
 Delta: O_D=  0.2624043E-11 O_OD= -0.3025865E-11 O_TOT= -0.4019007E-12 <-- DLTA
 ------------------------------------------------------------------------------
 Cycle:    185
  WF centre and spread    1  ( -0.000683, -0.000762, 10.000000 )     0.88684912
  WF centre and spread    2  (  1.144137,  0.679121, 10.000000 )     2.04059119
  Sum of centres and spreads (  1.143454,  0.678359, 20.000000 )     2.92744031
 
    185    -0.671E-13     0.0000043490        2.9274403100       1.59  <-- CONV
        O_D=      0.0104021 O_OD=      0.0011290 O_TOT=      2.9274403 <-- SPRD
 Delta: O_D=  0.4374938E-12 O_OD= -0.5044658E-12 O_TOT= -0.6705747E-13 <-- DLTA
 ------------------------------------------------------------------------------
 Cycle:    186
  WF centre and spread    1  ( -0.000683, -0.000762, 10.000000 )     0.88684912
  WF centre and spread    2  (  1.144137,  0.679121, 10.000000 )     2.04059119
  Sum of centres and spreads (  1.143454,  0.678359, 20.000000 )     2.92744031
 
    186    -0.134E-12     0.0000043488        2.9274403100       1.60  <-- CONV
        O_D=      0.0104021 O_OD=      0.0011290 O_TOT=      2.9274403 <-- SPRD
 Delta: O_D=  0.8749425E-12 O_OD= -0.1008866E-11 O_TOT= -0.1336709E-12 <-- DLTA
 ------------------------------------------------------------------------------
 Cycle:    187
  WF centre and spread    1  ( -0.000683, -0.000762, 10.000000 )     0.88684912
  WF centre and spread    2  (  1.144137,  0.679121, 10.000000 )     2.04059119
  Sum of centres and spreads (  1.143454,  0.678359, 20.000000 )     2.92744031
 
    187    -0.201E-12     0.0000043484        2.9274403100       1.60  <-- CONV
        O_D=      0.0104021 O_OD=      0.0011290 O_TOT=      2.9274403 <-- SPRD
 Delta: O_D=  0.1312256E-11 O_OD= -0.1513094E-11 O_TOT= -0.2007283E-12 <-- DLTA
 ------------------------------------------------------------------------------
 Cycle:    188
  WF centre and spread    1  ( -0.000683, -0.000762, 10.000000 )     0.88684912
  WF centre and spread    2  (  1.144137,  0.679121, 10.000000 )     2.04059119
  Sum of centres and spreads (  1.143454,  0.678359, 20.000000 )     2.92744031
 
    188    -0.268E-12     0.0000043479        2.9274403100       1.60  <-- CONV
        O_D=      0.0104021 O_OD=      0.0011290 O_TOT=      2.9274403 <-- SPRD
 Delta: O_D=  0.1749359E-11 O_OD= -0.2017052E-11 O_TOT= -0.2677858E-12 <-- DLTA
 ------------------------------------------------------------------------------
 Cycle:    189
  WF centre and spread    1  ( -0.000683, -0.000762, 10.000000 )     0.88684912
  WF centre and spread    2  (  1.144137,  0.679121, 10.000000 )     2.04059119
  Sum of centres and spreads (  1.143454,  0.678359, 20.000000 )     2.92744031
 
    189    -0.334E-12     0.0000043472        2.9274403100       1.60  <-- CONV
        O_D=      0.0104021 O_OD=      0.0011290 O_TOT=      2.9274403 <-- SPRD
 Delta: O_D=  0.2186170E-11 O_OD= -0.2520629E-11 O_TOT= -0.3343992E-12 <-- DLTA
 ------------------------------------------------------------------------------
 Cycle:    190
  WF centre and spread    1  ( -0.000683, -0.000762, 10.000000 )     0.88684912
  WF centre and spread    2  (  1.144137,  0.679121, 10.000000 )     2.04059119
  Sum of centres and spreads (  1.143454,  0.678359, 20.000000 )     2.92744031
 
    190    -0.401E-12     0.0000043463        2.9274403100       1.60  <-- CONV
        O_D=      0.0104021 O_OD=      0.0011290 O_TOT=      2.9274403 <-- SPRD
 Delta: O_D=  0.2622602E-11 O_OD= -0.3023732E-11 O_TOT= -0.4014566E-12 <-- DLTA
 ------------------------------------------------------------------------------
 Cycle:    191
  WF centre and spread    1  ( -0.000683, -0.000762, 10.000000 )     0.88684912
  WF centre and spread    2  (  1.144137,  0.679121, 10.000000 )     2.04059119
  Sum of centres and spreads (  1.143454,  0.678359, 20.000000 )     2.92744031
 
    191    -0.666E-13     0.0000043452        2.9274403100       1.60  <-- CONV
        O_D=      0.0104021 O_OD=      0.0011290 O_TOT=      2.9274403 <-- SPRD
 Delta: O_D=  0.4372301E-12 O_OD= -0.5040851E-12 O_TOT= -0.6661338E-13 <-- DLTA
 ------------------------------------------------------------------------------
 Cycle:    192
  WF centre and spread    1  ( -0.000683, -0.000762, 10.000000 )     0.88684912
  WF centre and spread    2  (  1.144137,  0.679121, 10.000000 )     2.04059119
  Sum of centres and spreads (  1.143454,  0.678359, 20.000000 )     2.92744031
 
    192    -0.134E-12     0.0000043450        2.9274403100       1.60  <-- CONV
        O_D=      0.0104021 O_OD=      0.0011290 O_TOT=      2.9274403 <-- SPRD
 Delta: O_D=  0.8744169E-12 O_OD= -0.1008110E-11 O_TOT= -0.1336709E-12 <-- DLTA
 ------------------------------------------------------------------------------
 Cycle:    193
  WF centre and spread    1  ( -0.000683, -0.000762, 10.000000 )     0.88684912
  WF centre and spread    2  (  1.144137,  0.679121, 10.000000 )     2.04059119
  Sum of centres and spreads (  1.143454,  0.678359, 20.000000 )     2.92744031
 
    193    -0.201E-12     0.0000043447        2.9274403100       1.60  <-- CONV
        O_D=      0.0104021 O_OD=      0.0011290 O_TOT=      2.9274403 <-- SPRD
 Delta: O_D=  0.1311472E-11 O_OD= -0.1511970E-11 O_TOT= -0.2007283E-12 <-- DLTA
 ------------------------------------------------------------------------------
 Cycle:    194
  WF centre and spread    1  ( -0.000683, -0.000762, 10.000000 )     0.88684912
  WF centre and spread    2  (  1.144137,  0.679121, 10.000000 )     2.04059119
  Sum of centres and spreads (  1.143454,  0.678359, 20.000000 )     2.92744031
 
    194    -0.267E-12     0.0000043442        2.9274403100       1.60  <-- CONV
        O_D=      0.0104021 O_OD=      0.0011290 O_TOT=      2.9274403 <-- SPRD
 Delta: O_D=  0.1748338E-11 O_OD= -0.2015572E-11 O_TOT= -0.2668976E-12 <-- DLTA
 ------------------------------------------------------------------------------
 Cycle:    195
  WF centre and spread    1  ( -0.000683, -0.000762, 10.000000 )     0.88684912
  WF centre and spread    2  (  1.144137,  0.679121, 10.000000 )     2.04059119
  Sum of centres and spreads (  1.143454,  0.678359, 20.000000 )     2.92744031
 
    195    -0.334E-12     0.0000043435        2.9274403100       1.60  <-- CONV
        O_D=      0.0104021 O_OD=      0.0011290 O_TOT=      2.9274403 <-- SPRD
 Delta: O_D=  0.2184919E-11 O_OD= -0.2518819E-11 O_TOT= -0.3339551E-12 <-- DLTA
 ------------------------------------------------------------------------------
 Cycle:    196
  WF centre and spread    1  ( -0.000683, -0.000762, 10.000000 )     0.88684912
  WF centre and spread    2  (  1.144137,  0.679121, 10.000000 )     2.04059119
  Sum of centres and spreads (  1.143454,  0.678359, 20.000000 )     2.92744031
 
    196    -0.401E-12     0.0000043427        2.9274403100       1.60  <-- CONV
        O_D=      0.0104021 O_OD=      0.0011290 O_TOT=      2.9274403 <-- SPRD
 Delta: O_D=  0.2621145E-11 O_OD= -0.3021623E-11 O_TOT= -0.4005685E-12 <-- DLTA
 ------------------------------------------------------------------------------
 Cycle:    197
  WF centre and spread    1  ( -0.000683, -0.000762, 10.000000 )     0.88684912
  WF centre and spread    2  (  1.144137,  0.679121, 10.000000 )     2.04059119
  Sum of centres and spreads (  1.143454,  0.678359, 20.000000 )     2.92744031
 
    197    -0.666E-13     0.0000043417        2.9274403100       1.60  <-- CONV
        O_D=      0.0104021 O_OD=      0.0011290 O_TOT=      2.9274403 <-- SPRD
 Delta: O_D=  0.4369664E-12 O_OD= -0.5037121E-12 O_TOT= -0.6661338E-13 <-- DLTA
 ------------------------------------------------------------------------------
 Cycle:    198
  WF centre and spread    1  ( -0.000683, -0.000762, 10.000000 )     0.88684912
  WF centre and spread    2  (  1.144137,  0.679121, 10.000000 )     2.04059119
  Sum of centres and spreads (  1.143454,  0.678359, 20.000000 )     2.92744031
 
    198    -0.134E-12     0.0000043415        2.9274403100       1.60  <-- CONV
        O_D=      0.0104021 O_OD=      0.0011290 O_TOT=      2.9274403 <-- SPRD
 Delta: O_D=  0.8738895E-12 O_OD= -0.1007367E-11 O_TOT= -0.1336709E-12 <-- DLTA
 ------------------------------------------------------------------------------
 Cycle:    199
  WF centre and spread    1  ( -0.000683, -0.000762, 10.000000 )     0.88684912
  WF centre and spread    2  (  1.144137,  0.679121, 10.000000 )     2.04059119
  Sum of centres and spreads (  1.143454,  0.678359, 20.000000 )     2.92744031
 
    199    -0.200E-12     0.0000043412        2.9274403100       1.60  <-- CONV
        O_D=      0.0104021 O_OD=      0.0011290 O_TOT=      2.9274403 <-- SPRD
 Delta: O_D=  0.1310696E-11 O_OD= -0.1510872E-11 O_TOT= -0.2002842E-12 <-- DLTA
 ------------------------------------------------------------------------------
 Cycle:    200
  WF centre and spread    1  ( -0.000683, -0.000762, 10.000000 )     0.88684912
  WF centre and spread    2  (  1.144137,  0.679121, 10.000000 )     2.04059119
  Sum of centres and spreads (  1.143454,  0.678359, 20.000000 )     2.92744031
 
    200    -0.266E-12     0.0000043407        2.9274403100       1.60  <-- CONV
        O_D=      0.0104021 O_OD=      0.0011290 O_TOT=      2.9274403 <-- SPRD
 Delta: O_D=  0.1747311E-11 O_OD= -0.2014124E-11 O_TOT= -0.2664535E-12 <-- DLTA
 ------------------------------------------------------------------------------

 Writing checkpoint file gra.chk... done

 Final State
  WF centre and spread    1  ( -0.000683, -0.000762, 10.000000 )     0.88684912
  WF centre and spread    2  (  1.144137,  0.679121, 10.000000 )     2.04059119
  Sum of centres and spreads (  1.143454,  0.678359, 20.000000 )     2.92744031
 
         Spreads (Ang^2)       Omega I      =     2.915909182
        ================       Omega D      =     0.010402079
                               Omega OD     =     0.001129050
    Final Spread (Ang^2)       Omega Total  =     2.927440310
 ------------------------------------------------------------------------------

 Wannier centres written to file gra_centres.xyz
 Time for wannierise            0.144 (sec)

 Writing checkpoint file gra.chk... done

 *---------------------------------------------------------------------------*
 |                               PLOTTING                                    |
 *---------------------------------------------------------------------------*
 
 !!!! Kpoint grid does not include Gamma.  Interpolation may be incorrect. !!!!
 
 Calculating interpolated band-structure
 
 Time to calculate interpolated band structure       0.061 (sec)
 
 Time for plotting              0.189 (sec)
 Total Execution Time           3.094 (sec)

 *===========================================================================*
 |                             TIMING INFORMATION                            |
 *===========================================================================*
 |    Tag                                                Ncalls      Time (s)|
 |---------------------------------------------------------------------------|
 |kmesh: get                                        :         1         0.392|
 |overlap: allocate                                 :         1         0.000|
 |overlap: read                                     :         1         0.868|
 |dis: main                                         :         1         1.450|
 |wann: main                                        :         1         0.144|
 |plot: main                                        :         1         0.189|
 *---------------------------------------------------------------------------*
 
 All done: wannier90 exiting
