
  ___ ___ ___ _ _ _  
 |   |   |_  | | | | 
 | | | | | . | | | | 
 |__ |  _|___|_____|  21.6.0
 |___|_|             

User:   pfsuo@cu18
Date:   Tue Nov  9 12:15:44 2021
Arch:   x86_64
Pid:    38007
Python: 3.8.5
gpaw:   /home/pfsuo/data0/anaconda3/lib/python3.8/site-packages/gpaw-21.6.0-py3.8-linux-x86_64.egg/gpaw
_gpaw:  /home/pfsuo/data0/anaconda3/lib/python3.8/site-packages/
        _gpaw.cpython-38-x86_64-linux-gnu.so
ase:    /home/pfsuo/data0/anaconda3/lib/python3.8/site-packages/ase (version 3.22.0)
numpy:  /home/pfsuo/data0/anaconda3/lib/python3.8/site-packages/numpy (version 1.21.3)
scipy:  /home/pfsuo/data0/anaconda3/lib/python3.8/site-packages/scipy (version 1.7.1)
libxc:  4.3.4
units:  Angstrom and eV
cores: 16
OpenMP: True
OMP_NUM_THREADS: 1

Input parameters:
  convergence: {density: 1e-06}
  kpts: [24 24  1]
  mode: {ecut: 520.0,
         gammacentered: False,
         name: pw}
  occupations: {fixmagmom: False,
                name: fermi-dirac,
                width: 0.1}

System changes: positions, numbers, cell, pbc, initial_charges, initial_magmoms 

Initialize ...

C-setup:
  name: Carbon
  id: d60576a1f549371a163e72552ca58787
  Z: 6.0
  valence: 4
  core: 2
  charge: 0.0
  file: /home/pfsuo/software/gpaw-setups-0.9.20000/C.LDA.gz
  compensation charges: gauss, rc=0.20, lmax=2
  cutoffs: 1.14(filt), 1.14(core),
  valence states:
                energy  radius
    2s(2.00)   -13.639   0.635
    2p(2.00)    -5.414   0.635
    *s          13.573   0.635
    *p          21.797   0.635
    *d           0.000   0.635

  Using partial waves for C as LCAO basis

Reference energy: -2037.605076

Spin-paired calculation

Convergence criteria:
  Maximum total energy change: 0.0005 eV / electron
  Maximum integral of absolute density change: 1e-06 electrons
  Maximum integral of absolute eigenstate change: 4e-08 eV^2
  Maximum number of iterations: 333

Symmetries present (total): 12

  ( 1  1  0)  ( 1  1  0)  ( 1  0  0)  ( 1  0  0)  ( 0  1  0)  ( 0  1  0)
  ( 0 -1  0)  ( 0 -1  0)  ( 0  1  0)  ( 0  1  0)  (-1 -1  0)  (-1 -1  0)
  ( 0  0  1)  ( 0  0 -1)  ( 0  0  1)  ( 0  0 -1)  ( 0  0  1)  ( 0  0 -1)

  ( 0 -1  0)  ( 0 -1  0)  (-1  0  0)  (-1  0  0)  (-1 -1  0)  (-1 -1  0)
  (-1  0  0)  (-1  0  0)  ( 1  1  0)  ( 1  1  0)  ( 1  0  0)  ( 1  0  0)
  ( 0  0  1)  ( 0  0 -1)  ( 0  0  1)  ( 0  0 -1)  ( 0  0  1)  ( 0  0 -1)
Note: your k-points are not as symmetric as your crystal!

576 k-points: 24 x 24 x 1 Monkhorst-Pack grid
156 k-points in the irreducible part of the Brillouin zone
       k-points in crystal coordinates                weights
   0:     0.02083333   -0.02083333    0.00000000          2/576
   1:     0.02083333    0.02083333    0.00000000          2/576
   2:     0.06250000   -0.06250000    0.00000000          2/576
   3:     0.06250000   -0.02083333    0.00000000          4/576
   4:     0.06250000    0.02083333    0.00000000          4/576
   5:     0.06250000    0.06250000    0.00000000          2/576
   6:     0.10416667   -0.10416667    0.00000000          2/576
   7:     0.10416667   -0.06250000    0.00000000          4/576
   8:     0.10416667   -0.02083333    0.00000000          4/576
   9:     0.10416667    0.02083333    0.00000000          4/576
          ...
 155:     0.47916667    0.47916667    0.00000000          2/576

Wave functions: Plane wave expansion
  Cutoff energy: 520.000 eV
  Number of coefficients (min, max): 2749, 2840
  Pulay-stress correction: 0.000000 eV/Ang^3 (de/decut=0.000000)
  Using FFTW library
  ScaLapack parameters: grid=1x1, blocksize=None
  Wavefunction extrapolation:
    Improved wavefunction reuse through dual PAW basis 

Occupation numbers: Fermi-Dirac: width=0.1000 eV
 

Eigensolver
   Davidson(niter=2) 

Densities:
  Coarse grid: 14*14*108 grid
  Fine grid: 28*28*216 grid
  Total Charge: 0.000000 

Density mixing:
  Method: separate
  Backend: pulay
  Linear mixing parameter: 0.05
  Mixing with 5 old densities
  Damping of long wave oscillations: 50 

Hamiltonian:
  XC and Coulomb potentials evaluated on a 28*28*216 grid
  Using the LDA Exchange-Correlation functional
 

Memory estimate:
  Process memory now: 144.98 MiB
  Calculator: 19.20 MiB
    Density: 8.77 MiB
      Arrays: 4.20 MiB
      Localized functions: 2.95 MiB
      Mixer: 1.61 MiB
    Hamiltonian: 2.81 MiB
      Arrays: 2.75 MiB
      XC: 0.00 MiB
      Poisson: 0.00 MiB
      vbar: 0.06 MiB
    Wavefunctions: 7.63 MiB
      Arrays psit_nG: 3.12 MiB
      Eigensolver: 0.57 MiB
      Projections: 0.03 MiB
      Projectors: 2.71 MiB
      PW-descriptor: 1.20 MiB

Total number of cores used: 16
Parallelization over k-points: 16

Number of atoms: 2
Number of atomic orbitals: 8
Number of bands in calculation: 8
Number of valence electrons: 8
Bands to converge: occupied

... initialized

Initializing position-dependent things.

Density initialized from atomic densities
Creating initial wave functions:
  8 bands from LCAO basis set

                    
                    
                    
                    
       C   C        
                    
                    
                    
                    

Positions:
   0 C      0.000000    0.000000   10.000000    ( 0.0000,  0.0000,  0.0000)
   1 C      1.223630    0.706463   10.000000    ( 0.0000,  0.0000,  0.0000)

Unit cell:
           periodic     x           y           z      points  spacing
  1. axis:    yes    2.447260    0.000000    0.000000    14     0.1514
  2. axis:    yes   -1.223630    2.119390    0.000000    14     0.1514
  3. axis:    yes    0.000000    0.000000   20.000000   108     0.1852

  Lengths:   2.447260   2.447260  20.000000
  Angles:   90.000000  90.000000 120.000000

Effective grid spacing dv^(1/3) = 0.1699

                     log10-error:    total        iterations:
           time      wfs    density  energy       poisson
iter:   1  12:15:46                 -21.412397           
iter:   2  12:15:46  -0.80  -0.78   -21.289459           
iter:   3  12:15:47  -0.23  -0.80   -21.042924           
iter:   4  12:15:47  -1.59  -0.89   -20.426440           
iter:   5  12:15:47  -2.73  -1.15   -20.405313           
iter:   6  12:15:48  -1.26  -1.16   -20.194996           
iter:   7  12:15:48  -2.87  -2.38   -20.195896           
iter:   8  12:15:49  -4.15  -2.26   -20.194502           
iter:   9  12:15:49  -3.26  -2.47   -20.194270           
iter:  10  12:15:49  -4.76  -2.49   -20.194349           
iter:  11  12:15:50  -4.83  -2.44   -20.194765           
iter:  12  12:15:50  -3.66  -2.34   -20.193658           
iter:  13  12:15:51  -5.41  -3.87   -20.193660           
iter:  14  12:15:51  -6.50  -4.01   -20.193659           
iter:  15  12:15:52  -6.11  -4.39   -20.193662           
iter:  16  12:15:52  -6.42  -3.65   -20.193659           
iter:  17  12:15:52  -6.62  -4.70   -20.193660           
iter:  18  12:15:53  -6.73  -3.95   -20.193659           
iter:  19  12:15:53  -8.36  -4.54   -20.193659           
iter:  20  12:15:54  -9.42  -5.06   -20.193659           
iter:  21  12:15:54  -9.69  -5.13   -20.193659           
iter:  22  12:15:54  -9.72  -5.17   -20.193659           
iter:  23  12:15:55  -9.94  -5.33   -20.193659           
iter:  24  12:15:55 -10.31  -5.31   -20.193659           
iter:  25  12:15:56 -11.23  -5.37   -20.193659           
iter:  26  12:15:56  -9.99  -5.40   -20.193659           
iter:  27  12:15:56 -11.37  -5.75   -20.193659           
iter:  28  12:15:57 -12.22  -5.81   -20.193659           
iter:  29  12:15:57 -11.87  -5.94   -20.193659           
iter:  30  12:15:58 -11.95  -6.03   -20.193659           

Converged after 30 iterations.

Dipole moment: (0.890096, -0.513897, 0.000000) |e|*Ang

Energy contributions relative to reference atoms: (reference = -2037.605076)

Kinetic:        +20.084616
Potential:      -20.079285
External:        +0.000000
XC:             -20.221863
Entropy (-ST):   -0.000466
Local:           +0.023106
--------------------------
Free energy:    -20.193892
Extrapolated:   -20.193659

Showing only first 2 kpts
 Kpt  Band  Eigenvalues  Occupancy
  0     2     -5.78394    2.00000
  0     3     -5.76509    2.00000
  0     4      0.64728    0.00000
  0     5      1.57995    0.00000

  1     2     -5.86645    2.00000
  1     3     -5.81140    2.00000
  1     4      0.67533    0.00000
  1     5      1.60854    0.00000


Fermi level: -2.71363

Gap: 0.680 eV
Transition (v -> c):
  (s=0, k=88, n=3, [0.35, 0.31, 0.00]) -> (s=0, k=88, n=4, [0.35, 0.31, 0.00])
Timing:                              incl.     excl.
-----------------------------------------------------------
Hamiltonian:                         0.156     0.001   0.0% |
 Atomic:                             0.015     0.015   0.0% |
  XC Correction:                     0.000     0.000   0.0% |
 Calculate atomic Hamiltonians:      0.002     0.002   0.0% |
 Communicate:                        0.116     0.116   0.2% |
 Initialize Hamiltonian:             0.000     0.000   0.0% |
 Poisson:                            0.001     0.001   0.0% |
 XC 3D grid:                         0.021     0.021   0.0% |
LCAO initialization:                 0.396     0.018   0.0% |
 LCAO eigensolver:                   0.079     0.000   0.0% |
  Calculate projections:             0.000     0.000   0.0% |
  DenseAtomicCorrection:             0.001     0.001   0.0% |
  Distribute overlap matrix:         0.000     0.000   0.0% |
  Orbital Layouts:                   0.001     0.001   0.0% |
  Potential matrix:                  0.073     0.073   0.1% |
  Sum over cells:                    0.004     0.004   0.0% |
 LCAO to grid:                       0.245     0.245   0.3% |
 Set positions (LCAO WFS):           0.053     0.010   0.0% |
  Basic WFS set positions:           0.001     0.001   0.0% |
  Basis functions set positions:     0.000     0.000   0.0% |
  P tci:                             0.016     0.016   0.0% |
  ST tci:                            0.020     0.020   0.0% |
  mktci:                             0.007     0.007   0.0% |
PWDescriptor:                        0.045     0.045   0.1% |
SCF-cycle:                          12.610     5.435   7.3% |--|
 Davidson:                           3.953     0.872   1.2% |
  Apply H:                           0.576     0.543   0.7% |
   HMM T:                            0.033     0.033   0.0% |
  Subspace diag:                     0.768     0.019   0.0% |
   calc_h_matrix:                    0.656     0.070   0.1% |
    Apply H:                         0.586     0.548   0.7% |
     HMM T:                          0.038     0.038   0.1% |
   diagonalize:                      0.041     0.041   0.1% |
   rotate_psi:                       0.052     0.052   0.1% |
  calc. matrices:                    1.572     0.425   0.6% |
   Apply H:                          1.147     1.086   1.5% ||
    HMM T:                           0.061     0.061   0.1% |
  diagonalize:                       0.078     0.078   0.1% |
  rotate_psi:                        0.087     0.087   0.1% |
 Density:                            1.767     0.000   0.0% |
  Atomic density matrices:           0.473     0.473   0.6% |
  Mix:                               0.249     0.249   0.3% |
  Multipole moments:                 0.003     0.003   0.0% |
  Pseudo density:                    1.042     0.629   0.8% |
   Symmetrize density:               0.412     0.412   0.6% |
 Hamiltonian:                        1.443     0.018   0.0% |
  Atomic:                            0.242     0.242   0.3% |
   XC Correction:                    0.000     0.000   0.0% |
  Calculate atomic Hamiltonians:     0.075     0.075   0.1% |
  Communicate:                       0.580     0.580   0.8% |
  Poisson:                           0.020     0.020   0.0% |
  XC 3D grid:                        0.508     0.508   0.7% |
 Orthonormalize:                     0.012     0.001   0.0% |
  calc_s_matrix:                     0.002     0.002   0.0% |
  inverse-cholesky:                  0.001     0.001   0.0% |
  projections:                       0.007     0.007   0.0% |
  rotate_psi_s:                      0.001     0.001   0.0% |
Set symmetry:                        0.030     0.030   0.0% |
Other:                              61.399    61.399  82.3% |--------------------------------|
-----------------------------------------------------------
Total:                                        74.637 100.0%

Memory usage: 260.58 MiB
Date: Tue Nov  9 12:16:58 2021
