 
             +---------------------------------------------------+
             |                                                   |
             |                   WANNIER90                       |
             |                                                   |
             +---------------------------------------------------+
             |                                                   |
             |        Welcome to the Maximally-Localized         |
             |        Generalized Wannier Functions code         |
             |            http://www.wannier.org                 |
             |                                                   |
             |                                                   |
             |  Wannier90 Developer Group:                       |
             |    Giovanni Pizzi    (EPFL)                       |
             |    Valerio Vitale    (Cambridge)                  |
             |    David Vanderbilt  (Rutgers University)         |
             |    Nicola Marzari    (EPFL)                       |
             |    Ivo Souza         (Universidad del Pais Vasco) |
             |    Arash A. Mostofi  (Imperial College London)    |
             |    Jonathan R. Yates (University of Oxford)       |
             |                                                   |
             |  For the full list of Wannier90 3.x authors,      |
             |  please check the code documentation and the      |
             |  README on the GitHub page of the code            |
             |                                                   |
             |                                                   |
             |  Please cite                                      |
             |                                                   |
             |  [ref] "Wannier90 as a community code:            |
             |        new features and applications",            |
             |        G. Pizzi et al., J. Phys. Cond. Matt. 32,  |
             |        165902 (2020).                             |
             |        http://doi.org/10.1088/1361-648X/ab51ff    |
             |                                                   |
             |  in any publications arising from the use of      |
             |  this code. For the method please cite            |
             |                                                   |
             |  [ref] "Maximally Localized Generalised Wannier   |
             |         Functions for Composite Energy Bands"     |
             |         N. Marzari and D. Vanderbilt              |
             |         Phys. Rev. B 56 12847 (1997)              |
             |                                                   |
             |  [ref] "Maximally Localized Wannier Functions     |
             |         for Entangled Energy Bands"               |
             |         I. Souza, N. Marzari and D. Vanderbilt    |
             |         Phys. Rev. B 65 035109 (2001)             |
             |                                                   |
             |                                                   |
             | Copyright (c) 1996-2020                           |
             |        The Wannier90 Developer Group and          |
             |        individual contributors                    |
             |                                                   |
             |      Release: 3.1.0        5th March    2020      |
             |                                                   |
             | This program is free software; you can            |
             | redistribute it and/or modify it under the terms  |
             | of the GNU General Public License as published by |
             | the Free Software Foundation; either version 2 of |
             | the License, or (at your option) any later version|
             |                                                   |
             | This program is distributed in the hope that it   |
             | will be useful, but WITHOUT ANY WARRANTY; without |
             | even the implied warranty of MERCHANTABILITY or   |
             | FITNESS FOR A PARTICULAR PURPOSE. See the GNU     |
             | General Public License for more details.          |
             |                                                   |
             | You should have received a copy of the GNU General|
             | Public License along with this program; if not,   |
             | write to the Free Software Foundation, Inc.,      |
             | 675 Mass Ave, Cambridge, MA 02139, USA.           |
             |                                                   |
             +---------------------------------------------------+
             |    Execution started on  8Nov2021 at 11:02:21     |
             +---------------------------------------------------+
 
 ******************************************************************************
 * -> Using CODATA 2006 constant values                                       *
 *    (http://physics.nist.gov/cuu/Constants/index.html)                      *
 * -> Using Bohr value from CODATA                                            *
 ******************************************************************************
 

 Running in parallel on  20 CPUs

 
                                    ------
                                    SYSTEM
                                    ------
 
                              Lattice Vectors (Ang)
                    a_1     2.447542   0.000000   0.000000
                    a_2    -1.223771   2.119633   0.000000
                    a_3     0.000000   0.000000   6.650792
 
                   Unit Cell Volume:      34.50359  (Ang^3)
 
                        Reciprocal-Space Vectors (Ang^-1)
                    b_1     2.567141   1.482140   0.000000
                    b_2     0.000000   2.964279   0.000000
                    b_3     0.000000   0.000000   0.944727
  
 *----------------------------------------------------------------------------*
 |   Site       Fractional Coordinate          Cartesian Coordinate (Ang)     |
 +----------------------------------------------------------------------------+
 | C    1   0.00000   0.00000   0.00000   |    0.00000   0.00000   0.00000    |
 | C    2   0.33333   0.66667   0.00000   |    0.00000   1.41309   0.00000    |
 | C    3   0.33333   0.66667   0.50000   |    0.00000   1.41309   3.32540    |
 | C    4   0.66667   0.33333   0.50000   |    1.22377   0.70654   3.32540    |
 *----------------------------------------------------------------------------*
                                ------------
                                K-POINT GRID
                                ------------
  
             Grid size = 15 x 15 x  3      Total points =  675
  
  
 *---------------------------------- MAIN ------------------------------------*
 |  Number of Wannier Functions               :                10             |
 |  Number of Objective Wannier Functions     :                10             |
 |  Number of input Bloch states              :                20             |
 |  Output verbosity (1=low, 5=high)          :                 1             |
 |  Timing Level (1=low, 5=high)              :                 1             |
 |  Optimisation (0=memory, 3=speed)          :                 3             |
 |  Length Unit                               :               Ang             |
 |  Post-processing setup (write *.nnkp)      :                 F             |
 |  Using Gamma-only branch of algorithms     :                 F             |
 *----------------------------------------------------------------------------*
 *------------------------------- WANNIERISE ---------------------------------*
 |  Total number of iterations                :               100             |
 |  Number of CG steps before reset           :                 5             |
 |  Trial step length for line search         :             2.000             |
 |  Convergence tolerence                     :         0.100E-09             |
 |  Convergence window                        :                -1             |
 |  Iterations between writing output         :                 1             |
 |  Iterations between backing up to disk     :               100             |
 |  Write r^2_nm to file                      :                 F             |
 |  Write xyz WF centres to file              :                 F             |
 |  Write on-site energies <0n|H|0n> to file  :                 F             |
 |  Use guiding centre to control phases      :                 T             |
 |  Use phases for initial projections        :                 F             |
 |  Iterations before starting guiding centres:                 0             |
 |  Iterations between using guiding centres  :                 1             |
 *----------------------------------------------------------------------------*
 *------------------------------- DISENTANGLE --------------------------------*
 |  Using band disentanglement                :                 T             |
 |  Total number of iterations                :             10000             |
 |  Mixing ratio                              :             0.500             |
 |  Convergence tolerence                     :         1.000E-10             |
 |  Convergence window                        :                 3             |
 *----------------------------------------------------------------------------*
 *-------------------------------- PLOTTING ----------------------------------*
 |  Plotting interpolated bandstructure       :                 T             |
 |   Number of K-path sections                :                 7             |
 |   Divisions along first K-path section     :               100             |
 |   Output format                            :           gnuplot             |
 |   Output mode                              :               s-k             |
 *----------------------------------------------------------------------------*
 |   K-space path sections:                                                   |
 |    From: G       0.000  0.000  0.000     To: K       0.333  0.333  0.000   |
 |    From: K       0.333  0.333  0.000     To: M       0.000  0.500  0.000   |
 |    From: M       0.000  0.500  0.000     To: G       0.000  0.000  0.000   |
 |    From: G       0.000  0.000  0.000     To: A       0.000  0.000  0.500   |
 |    From: A       0.000  0.000  0.500     To: H       0.333  0.333  0.500   |
 |    From: H       0.333  0.333  0.500     To: L       0.000  0.500  0.500   |
 |    From: L       0.000  0.500  0.500     To: A       0.000  0.000  0.500   |
 *----------------------------------------------------------------------------*
 |  Plotting Hamiltonian in WF basis          :                 T             |
 *----------------------------------------------------------------------------*
 Time to read parameters        0.055 (sec)

 *---------------------------------- K-MESH ----------------------------------*
 +----------------------------------------------------------------------------+
 |                    Distance to Nearest-Neighbour Shells                    |
 |                    ------------------------------------                    |
 |          Shell             Distance (Ang^-1)          Multiplicity         |
 |          -----             -----------------          ------------         |
 |             1                   0.197619                      6            |
 |             2                   0.314909                      2            |
 |             3                   0.342285                      6            |
 |             4                   0.371781                     12            |
 |             5                   0.395237                      6            |
 |             6                   0.465110                     12            |
 |             7                   0.505352                     12            |
 |             8                   0.522850                     12            |
 |             9                   0.592856                      6            |
 |            10                   0.610360                     24            |
 |            11                   0.629818                      2            |
 |            12                   0.660094                     12            |
 |            13                   0.671302                     12            |
 |            14                   0.684571                      6            |
 |            15                   0.712524                     12            |
 |            16                   0.716820                     12            |
 |            17                   0.743561                     12            |
 |            18                   0.753528                     12            |
 |            19                   0.779011                     24            |
 |            20                   0.790474                      6            |
 |            21                   0.818561                     24            |
 |            22                   0.850892                     12            |
 |            23                   0.861400                     12            |
 |            24                   0.864956                     12            |
 |            25                   0.905602                     12            |
 |            26                   0.917157                     24            |
 |            27                   0.930220                     12            |
 |            28                   0.944727                      2            |
 |            29                   0.950979                     24            |
 |            30                   0.958793                     24            |
 |            31                   0.965175                     12            |
 |            32                   0.988093                      6            |
 |            33                   1.004823                     12            |
 |            34                   1.010703                     12            |
 |            35                   1.024071                     12            |
 |            36                   1.026856                      6            |
 +----------------------------------------------------------------------------+
 | The b-vectors are chosen automatically                                     |
 | The following shells are used:   1,  2                                     |
 +----------------------------------------------------------------------------+
 |                        Shell   # Nearest-Neighbours                        |
 |                        -----   --------------------                        |
 |                          1               6                                 |
 |                          2               2                                 |
 +----------------------------------------------------------------------------+
 | Completeness relation is fully satisfied [Eq. (B1), PRB 56, 12847 (1997)]  |
 +----------------------------------------------------------------------------+
 |                  b_k Vectors (Ang^-1) and Weights (Ang^2)                  |
 |                  ----------------------------------------                  |
 |            No.         b_k(x)      b_k(y)      b_k(z)        w_b           |
 |            ---        --------------------------------     --------        |
 |             1         0.171143    0.098809    0.000000     8.535384        |
 |             2         0.000000   -0.197619    0.000000     8.535384        |
 |             3        -0.171143    0.098809    0.000000     8.535384        |
 |             4        -0.171143   -0.098809    0.000000     8.535384        |
 |             5         0.000000    0.197619    0.000000     8.535384        |
 |             6         0.171143   -0.098809    0.000000     8.535384        |
 |             7         0.000000    0.000000    0.314909     5.041961        |
 |             8         0.000000    0.000000   -0.314909     5.041961        |
 +----------------------------------------------------------------------------+
 |                           b_k Directions (Ang^-1)                          |
 |                           -----------------------                          |
 |            No.           x           y           z                         |
 |            ---        --------------------------------                     |
 |             1         0.171143    0.098809    0.000000                     |
 |             2         0.000000   -0.197619    0.000000                     |
 |             3        -0.171143    0.098809    0.000000                     |
 |             4         0.000000    0.000000    0.314909                     |
 +----------------------------------------------------------------------------+
  
 Time to get kmesh              0.395 (sec)
 *============================================================================*
 |                              MEMORY ESTIMATE                               |
 |         Maximum RAM allocated during each phase of the calculation         |
 *============================================================================*
 |                        Disentanglement           46.97 Mb                  |
 |                            Wannierise:           25.10 Mb                  |
 |                          plot_wannier:           25.10 Mb                  |
 *----------------------------------------------------------------------------*
  
 Starting a new Wannier90 calculation ...


 Reading overlaps from wannier90.mmn    : File generated by VASP: unknown system

 Reading projections from wannier90.amn : File generated by VASP: unknown system

 Time to read overlaps          1.776 (sec)

 *------------------------------- DISENTANGLE --------------------------------*
 +----------------------------------------------------------------------------+
 |                              Energy  Windows                               |
 |                              ---------------                               |
 |                   Outer:  -14.85043  to   17.00000  (eV)                   |
 |                   No frozen states were specified                          |
 +----------------------------------------------------------------------------+
   Number of target bands to extract:   10

                   Unitarised projection of Wannier functions                  
                   ------------------------------------------                  
   A_mn = <psi_m|g_n> --> S = A.A^+ --> U = S^-1/2.A
   In dis_project... done
   No inner window (linner = F)

                   Extraction of optimally-connected subspace                  
                   ------------------------------------------                  
 +---------------------------------------------------------------------+<-- DIS
 |  Iter     Omega_I(i-1)      Omega_I(i)      Delta (frac.)    Time   |<-- DIS
 +---------------------------------------------------------------------+<-- DIS
       1       7.95759922       7.52469978       5.753E-02      0.00    <-- DIS
       2       7.72127781       7.37504743       4.695E-02      0.01    <-- DIS
       3       7.53240650       7.25471687       3.828E-02      0.01    <-- DIS
       4       7.38043038       7.15368923       3.170E-02      0.02    <-- DIS
       5       7.25580557       7.06666690       2.676E-02      0.02    <-- DIS
       6       7.15140167       6.99033879       2.304E-02      0.03    <-- DIS
       7       7.06215117       6.92247481       2.018E-02      0.03    <-- DIS
       8       6.98449630       6.86149664       1.793E-02      0.04    <-- DIS
       9       6.91592649       6.80624227       1.612E-02      0.04    <-- DIS
      10       6.85464352       6.75582792       1.463E-02      0.05    <-- DIS
      11       6.79933264       6.70956313       1.338E-02      0.05    <-- DIS
      12       6.74900998       6.66689654       1.232E-02      0.06    <-- DIS
      13       6.70292172       6.62737985       1.140E-02      0.06    <-- DIS
      14       6.66047722       6.59064314       1.060E-02      0.07    <-- DIS
      15       6.62120430       6.55637737       9.888E-03      0.07    <-- DIS
      16       6.58471869       6.52432172       9.257E-03      0.08    <-- DIS
      17       6.55070296       6.49425405       8.692E-03      0.08    <-- DIS
      18       6.51889142       6.46598370       8.182E-03      0.09    <-- DIS
      19       6.48905933       6.43934593       7.720E-03      0.09    <-- DIS
      20       6.46101473       6.41419747       7.299E-03      0.10    <-- DIS
      21       6.43459235       6.39041302       6.913E-03      0.10    <-- DIS
      22       6.40964888       6.36788243       6.559E-03      0.11    <-- DIS
      23       6.38605928       6.34650839       6.232E-03      0.11    <-- DIS
      24       6.36371376       6.32620452       5.929E-03      0.12    <-- DIS
      25       6.34251548       6.30689383       5.648E-03      0.12    <-- DIS
      26       6.32237856       6.28850738       5.386E-03      0.13    <-- DIS
      27       6.30322649       6.27098323       5.142E-03      0.13    <-- DIS
      28       6.28499083       6.25426549       4.913E-03      0.14    <-- DIS
      29       6.26761011       6.23830357       4.698E-03      0.14    <-- DIS
      30       6.25102889       6.22305150       4.496E-03      0.15    <-- DIS
      31       6.23519698       6.20846738       4.305E-03      0.15    <-- DIS
      32       6.22006881       6.19451288       4.126E-03      0.16    <-- DIS
      33       6.20560283       6.18115286       3.956E-03      0.16    <-- DIS
      34       6.19176107       6.16835500       3.795E-03      0.17    <-- DIS
      35       6.17850870       6.15608948       3.642E-03      0.17    <-- DIS
      36       6.16581367       6.14432873       3.497E-03      0.18    <-- DIS
      37       6.15364645       6.13304717       3.359E-03      0.18    <-- DIS
      38       6.14197970       6.12222106       3.227E-03      0.19    <-- DIS
      39       6.13078811       6.11182827       3.102E-03      0.19    <-- DIS
      40       6.12004811       6.10184813       2.983E-03      0.20    <-- DIS
      41       6.10973780       6.09226135       2.869E-03      0.20    <-- DIS
      42       6.09983670       6.08304980       2.760E-03      0.21    <-- DIS
      43       6.09032568       6.07419651       2.655E-03      0.21    <-- DIS
      44       6.08118678       6.06568550       2.556E-03      0.22    <-- DIS
      45       6.07240319       6.05750171       2.460E-03      0.22    <-- DIS
      46       6.06395905       6.04963094       2.368E-03      0.22    <-- DIS
      47       6.05583946       6.04205980       2.281E-03      0.23    <-- DIS
      48       6.04803035       6.03477558       2.196E-03      0.23    <-- DIS
      49       6.04051841       6.02776629       2.116E-03      0.24    <-- DIS
      50       6.03329108       6.02102052       2.038E-03      0.24    <-- DIS
      51       6.02633645       6.01452746       1.963E-03      0.25    <-- DIS
      52       6.01964322       6.00827683       1.892E-03      0.25    <-- DIS
      53       6.01320067       6.00225887       1.823E-03      0.26    <-- DIS
      54       6.00699862       5.99646427       1.757E-03      0.26    <-- DIS
      55       6.00102737       5.99088415       1.693E-03      0.27    <-- DIS
      56       5.99527770       5.98551006       1.632E-03      0.27    <-- DIS
      57       5.98974081       5.98033394       1.573E-03      0.28    <-- DIS
      58       5.98440832       5.97534807       1.516E-03      0.28    <-- DIS
      59       5.97927223       5.97054510       1.462E-03      0.29    <-- DIS
      60       5.97432489       5.96591797       1.409E-03      0.29    <-- DIS
      61       5.96955901       5.96145996       1.359E-03      0.30    <-- DIS
      62       5.96496759       5.95716462       1.310E-03      0.30    <-- DIS
      63       5.96054396       5.95302576       1.263E-03      0.31    <-- DIS
      64       5.95628171       5.94903747       1.218E-03      0.31    <-- DIS
      65       5.95217473       5.94519409       1.174E-03      0.32    <-- DIS
      66       5.94821715       5.94149016       1.132E-03      0.32    <-- DIS
      67       5.94440333       5.93792047       1.092E-03      0.33    <-- DIS
      68       5.94072789       5.93448002       1.053E-03      0.33    <-- DIS
      69       5.93718564       5.93116399       1.015E-03      0.34    <-- DIS
      70       5.93377162       5.92796778       9.791E-04      0.34    <-- DIS
      71       5.93048106       5.92488694       9.442E-04      0.35    <-- DIS
      72       5.92730938       5.92191722       9.105E-04      0.35    <-- DIS
      73       5.92425219       5.91905453       8.781E-04      0.35    <-- DIS
      74       5.92130525       5.91629494       8.469E-04      0.36    <-- DIS
      75       5.91846451       5.91363465       8.167E-04      0.36    <-- DIS
      76       5.91572607       5.91107004       7.877E-04      0.37    <-- DIS
      77       5.91308617       5.90859760       7.597E-04      0.37    <-- DIS
      78       5.91054121       5.90621397       7.327E-04      0.38    <-- DIS
      79       5.90808771       5.90391592       7.066E-04      0.38    <-- DIS
      80       5.90572234       5.90170033       6.815E-04      0.39    <-- DIS
      81       5.90344188       5.89956419       6.573E-04      0.39    <-- DIS
      82       5.90124325       5.89750464       6.339E-04      0.40    <-- DIS
      83       5.89912346       5.89551888       6.114E-04      0.40    <-- DIS
      84       5.89707966       5.89360425       5.897E-04      0.41    <-- DIS
      85       5.89510910       5.89175818       5.687E-04      0.41    <-- DIS
      86       5.89320911       5.88997817       5.485E-04      0.42    <-- DIS
      87       5.89137715       5.88826185       5.291E-04      0.42    <-- DIS
      88       5.88961075       5.88660692       5.103E-04      0.43    <-- DIS
      89       5.88790755       5.88501116       4.922E-04      0.43    <-- DIS
      90       5.88626527       5.88347245       4.747E-04      0.44    <-- DIS
      91       5.88468171       5.88198872       4.578E-04      0.44    <-- DIS
      92       5.88315475       5.88055800       4.416E-04      0.45    <-- DIS
      93       5.88168235       5.87917837       4.259E-04      0.45    <-- DIS
      94       5.88026256       5.87784802       4.108E-04      0.46    <-- DIS
      95       5.87889347       5.87656515       3.962E-04      0.46    <-- DIS
      96       5.87757327       5.87532808       3.821E-04      0.47    <-- DIS
      97       5.87630020       5.87413515       3.686E-04      0.47    <-- DIS
      98       5.87507257       5.87298478       3.555E-04      0.48    <-- DIS
      99       5.87388875       5.87187544       3.429E-04      0.48    <-- DIS
     100       5.87274716       5.87080567       3.307E-04      0.49    <-- DIS
     101       5.87164629       5.86977405       3.190E-04      0.49    <-- DIS
     102       5.87058469       5.86877920       3.076E-04      0.49    <-- DIS
     103       5.86956093       5.86781982       2.967E-04      0.50    <-- DIS
     104       5.86857368       5.86689463       2.862E-04      0.50    <-- DIS
     105       5.86762162       5.86600242       2.760E-04      0.51    <-- DIS
     106       5.86670349       5.86514199       2.662E-04      0.51    <-- DIS
     107       5.86581808       5.86431222       2.568E-04      0.52    <-- DIS
     108       5.86496422       5.86351201       2.477E-04      0.52    <-- DIS
     109       5.86414077       5.86274030       2.389E-04      0.53    <-- DIS
     110       5.86334666       5.86199607       2.304E-04      0.53    <-- DIS
     111       5.86258084       5.86127834       2.222E-04      0.54    <-- DIS
     112       5.86184229       5.86058617       2.143E-04      0.54    <-- DIS
     113       5.86113003       5.85991865       2.067E-04      0.55    <-- DIS
     114       5.86044314       5.85927488       1.994E-04      0.55    <-- DIS
     115       5.85978070       5.85865403       1.923E-04      0.56    <-- DIS
     116       5.85914185       5.85805528       1.855E-04      0.56    <-- DIS
     117       5.85852573       5.85747784       1.789E-04      0.57    <-- DIS
     118       5.85793154       5.85692095       1.725E-04      0.57    <-- DIS
     119       5.85735850       5.85638387       1.664E-04      0.58    <-- DIS
     120       5.85680585       5.85586590       1.605E-04      0.58    <-- DIS
     121       5.85627287       5.85536636       1.548E-04      0.59    <-- DIS
     122       5.85575885       5.85488459       1.493E-04      0.59    <-- DIS
     123       5.85526311       5.85441995       1.440E-04      0.60    <-- DIS
     124       5.85478501       5.85397185       1.389E-04      0.60    <-- DIS
     125       5.85432392       5.85353968       1.340E-04      0.61    <-- DIS
     126       5.85387923       5.85312288       1.292E-04      0.61    <-- DIS
     127       5.85345035       5.85272091       1.246E-04      0.61    <-- DIS
     128       5.85303673       5.85233323       1.202E-04      0.62    <-- DIS
     129       5.85263782       5.85195933       1.159E-04      0.62    <-- DIS
     130       5.85225309       5.85159873       1.118E-04      0.63    <-- DIS
     131       5.85188204       5.85125095       1.079E-04      0.63    <-- DIS
     132       5.85152419       5.85091553       1.040E-04      0.64    <-- DIS
     133       5.85117906       5.85059204       1.003E-04      0.64    <-- DIS
     134       5.85084620       5.85028005       9.677E-05      0.65    <-- DIS
     135       5.85052517       5.84997915       9.334E-05      0.65    <-- DIS
     136       5.85021555       5.84968894       9.002E-05      0.66    <-- DIS
     137       5.84991695       5.84940905       8.683E-05      0.66    <-- DIS
     138       5.84962895       5.84913911       8.375E-05      0.67    <-- DIS
     139       5.84935119       5.84887876       8.077E-05      0.67    <-- DIS
     140       5.84908330       5.84862766       7.791E-05      0.68    <-- DIS
     141       5.84882494       5.84838549       7.514E-05      0.68    <-- DIS
     142       5.84857576       5.84815192       7.247E-05      0.69    <-- DIS
     143       5.84833543       5.84792666       6.990E-05      0.69    <-- DIS
     144       5.84810364       5.84770940       6.742E-05      0.70    <-- DIS
     145       5.84788009       5.84749985       6.503E-05      0.70    <-- DIS
     146       5.84766448       5.84729776       6.272E-05      0.71    <-- DIS
     147       5.84745653       5.84710284       6.049E-05      0.71    <-- DIS
     148       5.84725598       5.84691485       5.834E-05      0.72    <-- DIS
     149       5.84706254       5.84673354       5.627E-05      0.72    <-- DIS
     150       5.84687598       5.84655867       5.427E-05      0.73    <-- DIS
     151       5.84669605       5.84639001       5.235E-05      0.73    <-- DIS
     152       5.84652251       5.84622734       5.049E-05      0.74    <-- DIS
     153       5.84635514       5.84607046       4.870E-05      0.74    <-- DIS
     154       5.84619371       5.84591914       4.697E-05      0.74    <-- DIS
     155       5.84603802       5.84577320       4.530E-05      0.75    <-- DIS
     156       5.84588786       5.84563245       4.369E-05      0.75    <-- DIS
     157       5.84574303       5.84549669       4.214E-05      0.76    <-- DIS
     158       5.84560334       5.84536576       4.065E-05      0.76    <-- DIS
     159       5.84546862       5.84523947       3.920E-05      0.77    <-- DIS
     160       5.84533868       5.84511767       3.781E-05      0.77    <-- DIS
     161       5.84521336       5.84500020       3.647E-05      0.78    <-- DIS
     162       5.84509249       5.84488690       3.517E-05      0.78    <-- DIS
     163       5.84497591       5.84477763       3.393E-05      0.79    <-- DIS
     164       5.84486348       5.84467223       3.272E-05      0.79    <-- DIS
     165       5.84475503       5.84457058       3.156E-05      0.80    <-- DIS
     166       5.84465044       5.84447254       3.044E-05      0.80    <-- DIS
     167       5.84454956       5.84437798       2.936E-05      0.81    <-- DIS
     168       5.84445226       5.84428677       2.832E-05      0.81    <-- DIS
     169       5.84435842       5.84419881       2.731E-05      0.82    <-- DIS
     170       5.84426792       5.84411397       2.634E-05      0.82    <-- DIS
     171       5.84418062       5.84403214       2.541E-05      0.83    <-- DIS
     172       5.84409643       5.84395322       2.451E-05      0.83    <-- DIS
     173       5.84401522       5.84387710       2.364E-05      0.84    <-- DIS
     174       5.84393690       5.84380369       2.280E-05      0.84    <-- DIS
     175       5.84386136       5.84373288       2.199E-05      0.85    <-- DIS
     176       5.84378851       5.84366458       2.121E-05      0.85    <-- DIS
     177       5.84371824       5.84359871       2.045E-05      0.86    <-- DIS
     178       5.84365046       5.84353518       1.973E-05      0.86    <-- DIS
     179       5.84358509       5.84347391       1.903E-05      0.87    <-- DIS
     180       5.84352204       5.84341481       1.835E-05      0.87    <-- DIS
     181       5.84346124       5.84335780       1.770E-05      0.87    <-- DIS
     182       5.84340259       5.84330283       1.707E-05      0.88    <-- DIS
     183       5.84334602       5.84324980       1.647E-05      0.88    <-- DIS
     184       5.84329146       5.84319866       1.588E-05      0.89    <-- DIS
     185       5.84323884       5.84314933       1.532E-05      0.89    <-- DIS
     186       5.84318808       5.84310175       1.477E-05      0.90    <-- DIS
     187       5.84313913       5.84305587       1.425E-05      0.90    <-- DIS
     188       5.84309192       5.84301161       1.374E-05      0.91    <-- DIS
     189       5.84304638       5.84296892       1.326E-05      0.91    <-- DIS
     190       5.84300246       5.84292775       1.279E-05      0.92    <-- DIS
     191       5.84296010       5.84288804       1.233E-05      0.92    <-- DIS
     192       5.84291924       5.84284974       1.189E-05      0.93    <-- DIS
     193       5.84287983       5.84281280       1.147E-05      0.93    <-- DIS
     194       5.84284182       5.84277718       1.106E-05      0.94    <-- DIS
     195       5.84280517       5.84274281       1.067E-05      0.94    <-- DIS
     196       5.84276981       5.84270967       1.029E-05      0.95    <-- DIS
     197       5.84273571       5.84267770       9.928E-06      0.95    <-- DIS
     198       5.84270281       5.84264687       9.575E-06      0.96    <-- DIS
     199       5.84267109       5.84261713       9.236E-06      0.96    <-- DIS
     200       5.84264049       5.84258845       8.908E-06      0.97    <-- DIS
     201       5.84261098       5.84256078       8.592E-06      0.97    <-- DIS
     202       5.84258252       5.84253410       8.287E-06      0.98    <-- DIS
     203       5.84255506       5.84250837       7.993E-06      0.98    <-- DIS
     204       5.84252858       5.84248355       7.709E-06      0.99    <-- DIS
     205       5.84250305       5.84245961       7.435E-06      0.99    <-- DIS
     206       5.84247841       5.84243652       7.171E-06      0.99    <-- DIS
     207       5.84245466       5.84241424       6.917E-06      1.00    <-- DIS
     208       5.84243174       5.84239276       6.671E-06      1.00    <-- DIS
     209       5.84240964       5.84237205       6.435E-06      1.01    <-- DIS
     210       5.84238832       5.84235206       6.206E-06      1.01    <-- DIS
     211       5.84236776       5.84233279       5.986E-06      1.02    <-- DIS
     212       5.84234793       5.84231420       5.773E-06      1.02    <-- DIS
     213       5.84232881       5.84229627       5.568E-06      1.03    <-- DIS
     214       5.84231036       5.84227898       5.371E-06      1.03    <-- DIS
     215       5.84229257       5.84226230       5.180E-06      1.04    <-- DIS
     216       5.84227540       5.84224621       4.996E-06      1.04    <-- DIS
     217       5.84225885       5.84223070       4.819E-06      1.05    <-- DIS
     218       5.84224289       5.84221573       4.648E-06      1.05    <-- DIS
     219       5.84222749       5.84220130       4.483E-06      1.06    <-- DIS
     220       5.84221264       5.84218738       4.324E-06      1.06    <-- DIS
     221       5.84219832       5.84217395       4.170E-06      1.07    <-- DIS
     222       5.84218450       5.84216100       4.022E-06      1.07    <-- DIS
     223       5.84217117       5.84214851       3.880E-06      1.08    <-- DIS
     224       5.84215832       5.84213646       3.742E-06      1.08    <-- DIS
     225       5.84214593       5.84212484       3.609E-06      1.09    <-- DIS
     226       5.84213397       5.84211363       3.481E-06      1.09    <-- DIS
     227       5.84212244       5.84210282       3.357E-06      1.10    <-- DIS
     228       5.84211132       5.84209240       3.238E-06      1.10    <-- DIS
     229       5.84210059       5.84208234       3.123E-06      1.11    <-- DIS
     230       5.84209024       5.84207264       3.013E-06      1.11    <-- DIS
     231       5.84208026       5.84206329       2.906E-06      1.12    <-- DIS
     232       5.84207064       5.84205426       2.802E-06      1.12    <-- DIS
     233       5.84206135       5.84204556       2.703E-06      1.12    <-- DIS
     234       5.84205240       5.84203717       2.607E-06      1.13    <-- DIS
     235       5.84204376       5.84202907       2.515E-06      1.13    <-- DIS
     236       5.84203543       5.84202126       2.425E-06      1.14    <-- DIS
     237       5.84202740       5.84201373       2.339E-06      1.14    <-- DIS
     238       5.84201965       5.84200647       2.256E-06      1.15    <-- DIS
     239       5.84201217       5.84199946       2.176E-06      1.15    <-- DIS
     240       5.84200497       5.84199270       2.099E-06      1.16    <-- DIS
     241       5.84199801       5.84198619       2.024E-06      1.16    <-- DIS
     242       5.84199131       5.84197990       1.953E-06      1.17    <-- DIS
     243       5.84198484       5.84197384       1.883E-06      1.17    <-- DIS
     244       5.84197860       5.84196799       1.816E-06      1.18    <-- DIS
     245       5.84197258       5.84196235       1.752E-06      1.18    <-- DIS
     246       5.84196678       5.84195691       1.690E-06      1.19    <-- DIS
     247       5.84196118       5.84195166       1.630E-06      1.19    <-- DIS
     248       5.84195578       5.84194660       1.572E-06      1.20    <-- DIS
     249       5.84195057       5.84194172       1.516E-06      1.20    <-- DIS
     250       5.84194555       5.84193701       1.462E-06      1.21    <-- DIS
     251       5.84194071       5.84193247       1.410E-06      1.21    <-- DIS
     252       5.84193604       5.84192809       1.360E-06      1.22    <-- DIS
     253       5.84193153       5.84192386       1.312E-06      1.22    <-- DIS
     254       5.84192718       5.84191979       1.266E-06      1.23    <-- DIS
     255       5.84192299       5.84191586       1.221E-06      1.23    <-- DIS
     256       5.84191895       5.84191207       1.177E-06      1.24    <-- DIS
     257       5.84191505       5.84190841       1.136E-06      1.24    <-- DIS
     258       5.84191128       5.84190489       1.095E-06      1.25    <-- DIS
     259       5.84190766       5.84190149       1.056E-06      1.25    <-- DIS
     260       5.84190416       5.84189820       1.019E-06      1.25    <-- DIS
     261       5.84190078       5.84189504       9.827E-07      1.26    <-- DIS
     262       5.84189753       5.84189199       9.478E-07      1.26    <-- DIS
     263       5.84189439       5.84188905       9.142E-07      1.27    <-- DIS
     264       5.84189136       5.84188621       8.818E-07      1.27    <-- DIS
     265       5.84188844       5.84188347       8.505E-07      1.28    <-- DIS
     266       5.84188562       5.84188083       8.203E-07      1.28    <-- DIS
     267       5.84188290       5.84187828       7.912E-07      1.29    <-- DIS
     268       5.84188028       5.84187582       7.631E-07      1.29    <-- DIS
     269       5.84187775       5.84187345       7.360E-07      1.30    <-- DIS
     270       5.84187532       5.84187117       7.099E-07      1.30    <-- DIS
     271       5.84187296       5.84186896       6.847E-07      1.31    <-- DIS
     272       5.84187070       5.84186684       6.604E-07      1.31    <-- DIS
     273       5.84186851       5.84186479       6.370E-07      1.32    <-- DIS
     274       5.84186640       5.84186281       6.144E-07      1.32    <-- DIS
     275       5.84186436       5.84186090       5.926E-07      1.33    <-- DIS
     276       5.84186240       5.84185906       5.715E-07      1.33    <-- DIS
     277       5.84186051       5.84185729       5.513E-07      1.34    <-- DIS
     278       5.84185868       5.84185558       5.317E-07      1.34    <-- DIS
     279       5.84185692       5.84185392       5.128E-07      1.35    <-- DIS
     280       5.84185522       5.84185233       4.946E-07      1.35    <-- DIS
     281       5.84185358       5.84185080       4.771E-07      1.36    <-- DIS
     282       5.84185200       5.84184931       4.601E-07      1.36    <-- DIS
     283       5.84185048       5.84184789       4.438E-07      1.37    <-- DIS
     284       5.84184901       5.84184651       4.281E-07      1.37    <-- DIS
     285       5.84184759       5.84184518       4.129E-07      1.38    <-- DIS
     286       5.84184622       5.84184390       3.982E-07      1.38    <-- DIS
     287       5.84184490       5.84184266       3.841E-07      1.38    <-- DIS
     288       5.84184363       5.84184147       3.705E-07      1.39    <-- DIS
     289       5.84184240       5.84184032       3.573E-07      1.39    <-- DIS
     290       5.84184122       5.84183921       3.446E-07      1.40    <-- DIS
     291       5.84184008       5.84183814       3.324E-07      1.40    <-- DIS
     292       5.84183898       5.84183710       3.206E-07      1.41    <-- DIS
     293       5.84183792       5.84183611       3.092E-07      1.41    <-- DIS
     294       5.84183689       5.84183515       2.983E-07      1.42    <-- DIS
     295       5.84183590       5.84183422       2.877E-07      1.42    <-- DIS
     296       5.84183495       5.84183333       2.775E-07      1.43    <-- DIS
     297       5.84183403       5.84183247       2.676E-07      1.43    <-- DIS
     298       5.84183314       5.84183164       2.581E-07      1.44    <-- DIS
     299       5.84183229       5.84183084       2.490E-07      1.44    <-- DIS
     300       5.84183146       5.84183006       2.401E-07      1.45    <-- DIS
     301       5.84183067       5.84182932       2.316E-07      1.45    <-- DIS
     302       5.84182990       5.84182860       2.234E-07      1.46    <-- DIS
     303       5.84182916       5.84182790       2.155E-07      1.46    <-- DIS
     304       5.84182845       5.84182723       2.078E-07      1.47    <-- DIS
     305       5.84182776       5.84182659       2.004E-07      1.47    <-- DIS
     306       5.84182710       5.84182597       1.933E-07      1.48    <-- DIS
     307       5.84182646       5.84182537       1.865E-07      1.48    <-- DIS
     308       5.84182584       5.84182479       1.798E-07      1.49    <-- DIS
     309       5.84182524       5.84182423       1.735E-07      1.49    <-- DIS
     310       5.84182467       5.84182369       1.673E-07      1.50    <-- DIS
     311       5.84182411       5.84182317       1.614E-07      1.50    <-- DIS
     312       5.84182358       5.84182267       1.556E-07      1.51    <-- DIS
     313       5.84182306       5.84182219       1.501E-07      1.51    <-- DIS
     314       5.84182257       5.84182172       1.448E-07      1.51    <-- DIS
     315       5.84182209       5.84182127       1.397E-07      1.52    <-- DIS
     316       5.84182162       5.84182084       1.347E-07      1.52    <-- DIS
     317       5.84182118       5.84182042       1.299E-07      1.53    <-- DIS
     318       5.84182075       5.84182002       1.253E-07      1.53    <-- DIS
     319       5.84182033       5.84181963       1.209E-07      1.54    <-- DIS
     320       5.84181993       5.84181925       1.166E-07      1.54    <-- DIS
     321       5.84181955       5.84181889       1.124E-07      1.55    <-- DIS
     322       5.84181917       5.84181854       1.084E-07      1.55    <-- DIS
     323       5.84181881       5.84181820       1.046E-07      1.56    <-- DIS
     324       5.84181847       5.84181788       1.009E-07      1.56    <-- DIS
     325       5.84181813       5.84181756       9.731E-08      1.57    <-- DIS
     326       5.84181781       5.84181726       9.385E-08      1.57    <-- DIS
     327       5.84181750       5.84181697       9.052E-08      1.58    <-- DIS
     328       5.84181720       5.84181669       8.731E-08      1.58    <-- DIS
     329       5.84181691       5.84181642       8.421E-08      1.59    <-- DIS
     330       5.84181663       5.84181616       8.123E-08      1.59    <-- DIS
     331       5.84181636       5.84181591       7.834E-08      1.60    <-- DIS
     332       5.84181610       5.84181566       7.556E-08      1.60    <-- DIS
     333       5.84181585       5.84181543       7.288E-08      1.61    <-- DIS
     334       5.84181561       5.84181520       7.030E-08      1.61    <-- DIS
     335       5.84181538       5.84181498       6.780E-08      1.62    <-- DIS
     336       5.84181515       5.84181477       6.540E-08      1.62    <-- DIS
     337       5.84181494       5.84181457       6.307E-08      1.63    <-- DIS
     338       5.84181473       5.84181437       6.084E-08      1.63    <-- DIS
     339       5.84181453       5.84181418       5.868E-08      1.64    <-- DIS
     340       5.84181433       5.84181400       5.660E-08      1.64    <-- DIS
     341       5.84181415       5.84181383       5.459E-08      1.65    <-- DIS
     342       5.84181396       5.84181366       5.265E-08      1.65    <-- DIS
     343       5.84181379       5.84181349       5.078E-08      1.66    <-- DIS
     344       5.84181362       5.84181334       4.898E-08      1.66    <-- DIS
     345       5.84181346       5.84181318       4.724E-08      1.67    <-- DIS
     346       5.84181330       5.84181304       4.557E-08      1.67    <-- DIS
     347       5.84181315       5.84181290       4.395E-08      1.68    <-- DIS
     348       5.84181301       5.84181276       4.239E-08      1.68    <-- DIS
     349       5.84181287       5.84181263       4.089E-08      1.68    <-- DIS
     350       5.84181273       5.84181250       3.943E-08      1.69    <-- DIS
     351       5.84181260       5.84181238       3.804E-08      1.69    <-- DIS
     352       5.84181247       5.84181226       3.669E-08      1.70    <-- DIS
     353       5.84181235       5.84181215       3.538E-08      1.70    <-- DIS
     354       5.84181224       5.84181204       3.413E-08      1.71    <-- DIS
     355       5.84181212       5.84181193       3.292E-08      1.71    <-- DIS
     356       5.84181201       5.84181183       3.175E-08      1.72    <-- DIS
     357       5.84181191       5.84181173       3.062E-08      1.72    <-- DIS
     358       5.84181181       5.84181163       2.954E-08      1.73    <-- DIS
     359       5.84181171       5.84181154       2.849E-08      1.73    <-- DIS
     360       5.84181161       5.84181145       2.748E-08      1.74    <-- DIS
     361       5.84181152       5.84181137       2.650E-08      1.74    <-- DIS
     362       5.84181144       5.84181129       2.556E-08      1.75    <-- DIS
     363       5.84181135       5.84181121       2.466E-08      1.75    <-- DIS
     364       5.84181127       5.84181113       2.378E-08      1.76    <-- DIS
     365       5.84181119       5.84181106       2.294E-08      1.76    <-- DIS
     366       5.84181111       5.84181099       2.212E-08      1.77    <-- DIS
     367       5.84181104       5.84181092       2.134E-08      1.77    <-- DIS
     368       5.84181097       5.84181085       2.058E-08      1.78    <-- DIS
     369       5.84181090       5.84181079       1.985E-08      1.78    <-- DIS
     370       5.84181084       5.84181072       1.915E-08      1.79    <-- DIS
     371       5.84181077       5.84181067       1.847E-08      1.79    <-- DIS
     372       5.84181071       5.84181061       1.781E-08      1.80    <-- DIS
     373       5.84181065       5.84181055       1.718E-08      1.80    <-- DIS
     374       5.84181060       5.84181050       1.657E-08      1.80    <-- DIS
     375       5.84181054       5.84181045       1.598E-08      1.81    <-- DIS
     376       5.84181049       5.84181040       1.541E-08      1.81    <-- DIS
     377       5.84181044       5.84181035       1.487E-08      1.82    <-- DIS
     378       5.84181039       5.84181030       1.434E-08      1.82    <-- DIS
     379       5.84181034       5.84181026       1.383E-08      1.83    <-- DIS
     380       5.84181029       5.84181022       1.334E-08      1.83    <-- DIS
     381       5.84181025       5.84181018       1.287E-08      1.84    <-- DIS
     382       5.84181021       5.84181014       1.241E-08      1.84    <-- DIS
     383       5.84181017       5.84181010       1.197E-08      1.85    <-- DIS
     384       5.84181013       5.84181006       1.155E-08      1.85    <-- DIS
     385       5.84181009       5.84181002       1.114E-08      1.86    <-- DIS
     386       5.84181005       5.84180999       1.074E-08      1.86    <-- DIS
     387       5.84181002       5.84180996       1.036E-08      1.87    <-- DIS
     388       5.84180998       5.84180992       9.992E-09      1.87    <-- DIS
     389       5.84180995       5.84180989       9.638E-09      1.88    <-- DIS
     390       5.84180992       5.84180986       9.296E-09      1.88    <-- DIS
     391       5.84180989       5.84180983       8.966E-09      1.89    <-- DIS
     392       5.84180986       5.84180981       8.648E-09      1.89    <-- DIS
     393       5.84180983       5.84180978       8.341E-09      1.90    <-- DIS
     394       5.84180980       5.84180975       8.045E-09      1.90    <-- DIS
     395       5.84180977       5.84180973       7.760E-09      1.91    <-- DIS
     396       5.84180975       5.84180970       7.484E-09      1.91    <-- DIS
     397       5.84180972       5.84180968       7.219E-09      1.92    <-- DIS
     398       5.84180970       5.84180966       6.963E-09      1.92    <-- DIS
     399       5.84180968       5.84180964       6.716E-09      1.92    <-- DIS
     400       5.84180965       5.84180962       6.477E-09      1.93    <-- DIS
     401       5.84180963       5.84180960       6.248E-09      1.93    <-- DIS
     402       5.84180961       5.84180958       6.026E-09      1.94    <-- DIS
     403       5.84180959       5.84180956       5.812E-09      1.94    <-- DIS
     404       5.84180957       5.84180954       5.606E-09      1.95    <-- DIS
     405       5.84180955       5.84180952       5.407E-09      1.95    <-- DIS
     406       5.84180954       5.84180951       5.215E-09      1.96    <-- DIS
     407       5.84180952       5.84180949       5.030E-09      1.96    <-- DIS
     408       5.84180950       5.84180947       4.852E-09      1.97    <-- DIS
     409       5.84180949       5.84180946       4.679E-09      1.97    <-- DIS
     410       5.84180947       5.84180944       4.513E-09      1.98    <-- DIS
     411       5.84180946       5.84180943       4.353E-09      1.98    <-- DIS
     412       5.84180944       5.84180942       4.199E-09      1.99    <-- DIS
     413       5.84180943       5.84180940       4.050E-09      1.99    <-- DIS
     414       5.84180941       5.84180939       3.906E-09      2.00    <-- DIS
     415       5.84180940       5.84180938       3.768E-09      2.00    <-- DIS
     416       5.84180939       5.84180937       3.634E-09      2.01    <-- DIS
     417       5.84180938       5.84180936       3.505E-09      2.01    <-- DIS
     418       5.84180936       5.84180934       3.381E-09      2.02    <-- DIS
     419       5.84180935       5.84180933       3.261E-09      2.02    <-- DIS
     420       5.84180934       5.84180932       3.145E-09      2.03    <-- DIS
     421       5.84180933       5.84180931       3.033E-09      2.03    <-- DIS
     422       5.84180932       5.84180931       2.926E-09      2.04    <-- DIS
     423       5.84180931       5.84180930       2.822E-09      2.04    <-- DIS
     424       5.84180930       5.84180929       2.722E-09      2.04    <-- DIS
     425       5.84180929       5.84180928       2.625E-09      2.05    <-- DIS
     426       5.84180929       5.84180927       2.532E-09      2.05    <-- DIS
     427       5.84180928       5.84180926       2.442E-09      2.06    <-- DIS
     428       5.84180927       5.84180926       2.356E-09      2.06    <-- DIS
     429       5.84180926       5.84180925       2.272E-09      2.07    <-- DIS
     430       5.84180925       5.84180924       2.191E-09      2.07    <-- DIS
     431       5.84180925       5.84180923       2.114E-09      2.08    <-- DIS
     432       5.84180924       5.84180923       2.039E-09      2.08    <-- DIS
     433       5.84180923       5.84180922       1.966E-09      2.09    <-- DIS
     434       5.84180923       5.84180922       1.897E-09      2.09    <-- DIS
     435       5.84180922       5.84180921       1.829E-09      2.10    <-- DIS
     436       5.84180921       5.84180920       1.764E-09      2.10    <-- DIS
     437       5.84180921       5.84180920       1.702E-09      2.11    <-- DIS
     438       5.84180920       5.84180919       1.641E-09      2.11    <-- DIS
     439       5.84180920       5.84180919       1.583E-09      2.12    <-- DIS
     440       5.84180919       5.84180918       1.527E-09      2.12    <-- DIS
     441       5.84180919       5.84180918       1.473E-09      2.13    <-- DIS
     442       5.84180918       5.84180917       1.421E-09      2.13    <-- DIS
     443       5.84180918       5.84180917       1.370E-09      2.14    <-- DIS
     444       5.84180917       5.84180916       1.322E-09      2.14    <-- DIS
     445       5.84180917       5.84180916       1.275E-09      2.15    <-- DIS
     446       5.84180916       5.84180916       1.230E-09      2.15    <-- DIS
     447       5.84180916       5.84180915       1.186E-09      2.16    <-- DIS
     448       5.84180916       5.84180915       1.144E-09      2.16    <-- DIS
     449       5.84180915       5.84180915       1.103E-09      2.16    <-- DIS
     450       5.84180915       5.84180914       1.064E-09      2.17    <-- DIS
     451       5.84180914       5.84180914       1.026E-09      2.17    <-- DIS
     452       5.84180914       5.84180914       9.899E-10      2.18    <-- DIS
     453       5.84180914       5.84180913       9.548E-10      2.18    <-- DIS
     454       5.84180914       5.84180913       9.209E-10      2.19    <-- DIS
     455       5.84180913       5.84180913       8.883E-10      2.19    <-- DIS
     456       5.84180913       5.84180912       8.567E-10      2.20    <-- DIS
     457       5.84180913       5.84180912       8.264E-10      2.20    <-- DIS
     458       5.84180912       5.84180912       7.970E-10      2.21    <-- DIS
     459       5.84180912       5.84180912       7.688E-10      2.21    <-- DIS
     460       5.84180912       5.84180911       7.415E-10      2.22    <-- DIS
     461       5.84180912       5.84180911       7.152E-10      2.22    <-- DIS
     462       5.84180911       5.84180911       6.898E-10      2.23    <-- DIS
     463       5.84180911       5.84180911       6.653E-10      2.23    <-- DIS
     464       5.84180911       5.84180911       6.417E-10      2.24    <-- DIS
     465       5.84180911       5.84180910       6.190E-10      2.24    <-- DIS
     466       5.84180910       5.84180910       5.970E-10      2.25    <-- DIS
     467       5.84180910       5.84180910       5.758E-10      2.25    <-- DIS
     468       5.84180910       5.84180910       5.554E-10      2.26    <-- DIS
     469       5.84180910       5.84180910       5.357E-10      2.26    <-- DIS
     470       5.84180910       5.84180909       5.167E-10      2.27    <-- DIS
     471       5.84180910       5.84180909       4.983E-10      2.27    <-- DIS
     472       5.84180909       5.84180909       4.807E-10      2.28    <-- DIS
     473       5.84180909       5.84180909       4.636E-10      2.28    <-- DIS
     474       5.84180909       5.84180909       4.472E-10      2.28    <-- DIS
     475       5.84180909       5.84180909       4.313E-10      2.29    <-- DIS
     476       5.84180909       5.84180909       4.160E-10      2.29    <-- DIS
     477       5.84180909       5.84180908       4.012E-10      2.30    <-- DIS
     478       5.84180909       5.84180908       3.870E-10      2.30    <-- DIS
     479       5.84180908       5.84180908       3.733E-10      2.31    <-- DIS
     480       5.84180908       5.84180908       3.600E-10      2.31    <-- DIS
     481       5.84180908       5.84180908       3.473E-10      2.32    <-- DIS
     482       5.84180908       5.84180908       3.350E-10      2.32    <-- DIS
     483       5.84180908       5.84180908       3.231E-10      2.33    <-- DIS
     484       5.84180908       5.84180908       3.116E-10      2.33    <-- DIS
     485       5.84180908       5.84180908       3.006E-10      2.34    <-- DIS
     486       5.84180908       5.84180907       2.899E-10      2.34    <-- DIS
     487       5.84180908       5.84180907       2.796E-10      2.35    <-- DIS
     488       5.84180907       5.84180907       2.697E-10      2.35    <-- DIS
     489       5.84180907       5.84180907       2.601E-10      2.36    <-- DIS
     490       5.84180907       5.84180907       2.509E-10      2.36    <-- DIS
     491       5.84180907       5.84180907       2.420E-10      2.37    <-- DIS
     492       5.84180907       5.84180907       2.334E-10      2.37    <-- DIS
     493       5.84180907       5.84180907       2.251E-10      2.38    <-- DIS
     494       5.84180907       5.84180907       2.171E-10      2.38    <-- DIS
     495       5.84180907       5.84180907       2.094E-10      2.39    <-- DIS
     496       5.84180907       5.84180907       2.020E-10      2.39    <-- DIS
     497       5.84180907       5.84180907       1.948E-10      2.40    <-- DIS
     498       5.84180907       5.84180907       1.879E-10      2.40    <-- DIS
     499       5.84180907       5.84180906       1.813E-10      2.41    <-- DIS
     500       5.84180907       5.84180906       1.748E-10      2.41    <-- DIS
     501       5.84180906       5.84180906       1.686E-10      2.41    <-- DIS
     502       5.84180906       5.84180906       1.626E-10      2.42    <-- DIS
     503       5.84180906       5.84180906       1.569E-10      2.42    <-- DIS
     504       5.84180906       5.84180906       1.513E-10      2.43    <-- DIS
     505       5.84180906       5.84180906       1.459E-10      2.43    <-- DIS
     506       5.84180906       5.84180906       1.408E-10      2.44    <-- DIS
     507       5.84180906       5.84180906       1.358E-10      2.44    <-- DIS
     508       5.84180906       5.84180906       1.310E-10      2.45    <-- DIS
     509       5.84180906       5.84180906       1.263E-10      2.45    <-- DIS
     510       5.84180906       5.84180906       1.218E-10      2.46    <-- DIS
     511       5.84180906       5.84180906       1.175E-10      2.46    <-- DIS
     512       5.84180906       5.84180906       1.133E-10      2.47    <-- DIS
     513       5.84180906       5.84180906       1.093E-10      2.47    <-- DIS
     514       5.84180906       5.84180906       1.054E-10      2.48    <-- DIS
     515       5.84180906       5.84180906       1.017E-10      2.48    <-- DIS
     516       5.84180906       5.84180906       9.810E-11      2.49    <-- DIS
     517       5.84180906       5.84180906       9.461E-11      2.49    <-- DIS
     518       5.84180906       5.84180906       9.125E-11      2.50    <-- DIS

             <<<      Delta < 1.000E-10  over  3 iterations     >>>
             <<< Disentanglement convergence criteria satisfied >>>

        Final Omega_I     5.84180906 (Ang^2)

 +----------------------------------------------------------------------------+

 Time to disentangle bands      2.592 (sec)

 Writing checkpoint file wannier90.chk... done

 
 *------------------------------- WANNIERISE ---------------------------------*
 +--------------------------------------------------------------------+<-- CONV
 | Iter  Delta Spread     RMS Gradient      Spread (Ang^2)      Time  |<-- CONV
 +--------------------------------------------------------------------+<-- CONV
 
 ------------------------------------------------------------------------------
 Initial State
  WF centre and spread    1  (  0.000002, -0.000006,  0.000021 )     0.97024956
  WF centre and spread    2  (  0.000001,  1.413085, -0.000016 )     0.97015406
  WF centre and spread    3  (  0.000006,  1.413066,  3.325417 )     0.97020267
  WF centre and spread    4  (  1.223778,  0.706522,  3.325380 )     0.97011105
  WF centre and spread    5  ( -0.000001,  0.706878,  0.000000 )     0.58731874
  WF centre and spread    6  ( -0.611597,  1.766196,  0.000000 )     0.58731898
  WF centre and spread    7  (  0.611598,  1.766194, -0.000000 )     0.58731882
  WF centre and spread    8  ( -0.611594,  1.059986,  3.325396 )     0.58732146
  WF centre and spread    9  (  0.611593,  1.059984,  3.325396 )     0.58732150
  WF centre and spread   10  (  0.000001,  2.119296,  3.325396 )     0.58732133
  Sum of centres and spreads (  1.223787, 12.011202, 16.626989 )     7.40463816
 
      0     0.740E+01     0.0000000000        7.4046379316       2.67  <-- CONV
        O_D=      0.0288911 O_OD=      1.5339377 O_TOT=      7.4046379 <-- SPRD
 ------------------------------------------------------------------------------
 Cycle:      1
  WF centre and spread    1  (  0.000002, -0.000006,  0.000021 )     0.96160725
  WF centre and spread    2  (  0.000001,  1.413085, -0.000017 )     0.95839738
  WF centre and spread    3  (  0.000006,  1.413066,  3.325418 )     0.95849411
  WF centre and spread    4  (  1.223778,  0.706522,  3.325380 )     0.96147022
  WF centre and spread    5  ( -0.000001,  0.706842,  0.000000 )     0.57438541
  WF centre and spread    6  ( -0.611627,  1.766213,  0.000000 )     0.57438623
  WF centre and spread    7  (  0.611628,  1.766211,  0.000000 )     0.57438652
  WF centre and spread    8  ( -0.611625,  1.059968,  3.325395 )     0.57438443
  WF centre and spread    9  (  0.611624,  1.059967,  3.325395 )     0.57438422
  WF centre and spread   10  (  0.000001,  2.119332,  3.325396 )     0.57438528
  Sum of centres and spreads (  1.223787, 12.011202, 16.626989 )     7.28628105
 
      1    -0.118E+00     0.1234782663        7.2862808224       2.68  <-- CONV
        O_D=      0.0281422 O_OD=      1.4163295 O_TOT=      7.2862808 <-- SPRD
 Delta: O_D= -0.7489272E-03 O_OD= -0.1176082E+00 O_TOT= -0.1183571E+00 <-- DLTA
 ------------------------------------------------------------------------------
 Cycle:      2
  WF centre and spread    1  (  0.000002, -0.000006,  0.000022 )     0.95681133
  WF centre and spread    2  (  0.000001,  1.413085, -0.000018 )     0.95236481
  WF centre and spread    3  (  0.000006,  1.413066,  3.325418 )     0.95241070
  WF centre and spread    4  (  1.223778,  0.706522,  3.325380 )     0.95667481
  WF centre and spread    5  ( -0.000001,  0.706832,  0.000000 )     0.57070979
  WF centre and spread    6  ( -0.611636,  1.766218,  0.000000 )     0.57070996
  WF centre and spread    7  (  0.611637,  1.766217,  0.000000 )     0.57070988
  WF centre and spread    8  ( -0.611634,  1.059963,  3.325395 )     0.57071072
  WF centre and spread    9  (  0.611633,  1.059962,  3.325395 )     0.57071069
  WF centre and spread   10  (  0.000001,  2.119342,  3.325396 )     0.57071101
  Sum of centres and spreads (  1.223787, 12.011202, 16.626989 )     7.24252371
 
      2    -0.438E-01     0.1552523673        7.2425234806       2.69  <-- CONV
        O_D=      0.0225280 O_OD=      1.3781864 O_TOT=      7.2425235 <-- SPRD
 Delta: O_D= -0.5614225E-02 O_OD= -0.3814312E-01 O_TOT= -0.4375734E-01 <-- DLTA
 ------------------------------------------------------------------------------
 Cycle:      3
  WF centre and spread    1  (  0.000002, -0.000006,  0.000022 )     0.95581293
  WF centre and spread    2  (  0.000001,  1.413085, -0.000018 )     0.95135217
  WF centre and spread    3  (  0.000006,  1.413066,  3.325419 )     0.95138954
  WF centre and spread    4  (  1.223778,  0.706522,  3.325380 )     0.95567829
  WF centre and spread    5  ( -0.000001,  0.706831,  0.000000 )     0.56977648
  WF centre and spread    6  ( -0.611637,  1.766219,  0.000000 )     0.56977663
  WF centre and spread    7  (  0.611638,  1.766217,  0.000000 )     0.56977656
  WF centre and spread    8  ( -0.611634,  1.059963,  3.325395 )     0.56977792
  WF centre and spread    9  (  0.611633,  1.059961,  3.325395 )     0.56977792
  WF centre and spread   10  (  0.000001,  2.119343,  3.325396 )     0.56977800
  Sum of centres and spreads (  1.223787, 12.011202, 16.626989 )     7.23289642
 
      3    -0.963E-02     0.0646991253        7.2328961985       2.69  <-- CONV
        O_D=      0.0211602 O_OD=      1.3699270 O_TOT=      7.2328962 <-- SPRD
 Delta: O_D= -0.1367833E-02 O_OD= -0.8259449E-02 O_TOT= -0.9627282E-02 <-- DLTA
 ------------------------------------------------------------------------------
 Cycle:      4
  WF centre and spread    1  (  0.000002, -0.000006,  0.000022 )     0.95537959
  WF centre and spread    2  (  0.000001,  1.413085, -0.000018 )     0.95111884
  WF centre and spread    3  (  0.000006,  1.413066,  3.325419 )     0.95115502
  WF centre and spread    4  (  1.223778,  0.706522,  3.325380 )     0.95524275
  WF centre and spread    5  ( -0.000001,  0.706832,  0.000000 )     0.56925811
  WF centre and spread    6  ( -0.611636,  1.766218,  0.000001 )     0.56925826
  WF centre and spread    7  (  0.611637,  1.766217,  0.000001 )     0.56925815
  WF centre and spread    8  ( -0.611634,  1.059963,  3.325395 )     0.56925962
  WF centre and spread    9  (  0.611632,  1.059962,  3.325395 )     0.56925961
  WF centre and spread   10  (  0.000001,  2.119342,  3.325396 )     0.56925963
  Sum of centres and spreads (  1.223787, 12.011202, 16.626989 )     7.22844958
 
      4    -0.445E-02     0.0420315700        7.2284493491       2.70  <-- CONV
        O_D=      0.0208204 O_OD=      1.3658199 O_TOT=      7.2284493 <-- SPRD
 Delta: O_D= -0.3397917E-03 O_OD= -0.4107058E-02 O_TOT= -0.4446849E-02 <-- DLTA
 ------------------------------------------------------------------------------
 Cycle:      5
  WF centre and spread    1  (  0.000002, -0.000006,  0.000022 )     0.95509530
  WF centre and spread    2  (  0.000001,  1.413085, -0.000018 )     0.95110837
  WF centre and spread    3  (  0.000006,  1.413066,  3.325420 )     0.95113840
  WF centre and spread    4  (  1.223778,  0.706522,  3.325380 )     0.95496524
  WF centre and spread    5  ( -0.000001,  0.706833,  0.000000 )     0.56897635
  WF centre and spread    6  ( -0.611635,  1.766218,  0.000001 )     0.56897649
  WF centre and spread    7  (  0.611636,  1.766216,  0.000001 )     0.56897638
  WF centre and spread    8  ( -0.611633,  1.059964,  3.325394 )     0.56897796
  WF centre and spread    9  (  0.611632,  1.059962,  3.325394 )     0.56897796
  WF centre and spread   10  (  0.000001,  2.119341,  3.325396 )     0.56897796
  Sum of centres and spreads (  1.223787, 12.011202, 16.626989 )     7.22617042
 
      5    -0.228E-02     0.0287247813        7.2261701968       2.71  <-- CONV
        O_D=      0.0207255 O_OD=      1.3636356 O_TOT=      7.2261702 <-- SPRD
 Delta: O_D= -0.9485223E-04 O_OD= -0.2184300E-02 O_TOT= -0.2279152E-02 <-- DLTA
 ------------------------------------------------------------------------------
 Cycle:      6
  WF centre and spread    1  (  0.000002, -0.000006,  0.000022 )     0.95492986
  WF centre and spread    2  (  0.000001,  1.413085, -0.000019 )     0.95110811
  WF centre and spread    3  (  0.000006,  1.413066,  3.325420 )     0.95113617
  WF centre and spread    4  (  1.223778,  0.706522,  3.325380 )     0.95479956
  WF centre and spread    5  ( -0.000001,  0.706833,  0.000000 )     0.56885823
  WF centre and spread    6  ( -0.611635,  1.766218,  0.000001 )     0.56885836
  WF centre and spread    7  (  0.611636,  1.766216,  0.000001 )     0.56885825
  WF centre and spread    8  ( -0.611632,  1.059964,  3.325394 )     0.56885976
  WF centre and spread    9  (  0.611631,  1.059962,  3.325394 )     0.56885978
  WF centre and spread   10  (  0.000001,  2.119341,  3.325395 )     0.56885972
  Sum of centres and spreads (  1.223787, 12.011202, 16.626989 )     7.22512779
 
      6    -0.104E-02     0.0207712315        7.2251275677       2.71  <-- CONV
        O_D=      0.0205524 O_OD=      1.3627661 O_TOT=      7.2251276 <-- SPRD
 Delta: O_D= -0.1730668E-03 O_OD= -0.8695623E-03 O_TOT= -0.1042629E-02 <-- DLTA
 ------------------------------------------------------------------------------
 Cycle:      7
  WF centre and spread    1  (  0.000002, -0.000006,  0.000022 )     0.95489378
  WF centre and spread    2  (  0.000001,  1.413085, -0.000019 )     0.95107087
  WF centre and spread    3  (  0.000006,  1.413066,  3.325420 )     0.95109710
  WF centre and spread    4  (  1.223778,  0.706522,  3.325380 )     0.95476457
  WF centre and spread    5  ( -0.000001,  0.706833,  0.000000 )     0.56883796
  WF centre and spread    6  ( -0.611635,  1.766218,  0.000001 )     0.56883809
  WF centre and spread    7  (  0.611636,  1.766216,  0.000001 )     0.56883797
  WF centre and spread    8  ( -0.611632,  1.059964,  3.325394 )     0.56883949
  WF centre and spread    9  (  0.611631,  1.059962,  3.325394 )     0.56883951
  WF centre and spread   10  (  0.000001,  2.119341,  3.325395 )     0.56883943
  Sum of centres and spreads (  1.223787, 12.011202, 16.626989 )     7.22485878
 
      7    -0.269E-03     0.0131426871        7.2248585492       2.72  <-- CONV
        O_D=      0.0204982 O_OD=      1.3625513 O_TOT=      7.2248585 <-- SPRD
 Delta: O_D= -0.5424976E-04 O_OD= -0.2147687E-03 O_TOT= -0.2690185E-03 <-- DLTA
 ------------------------------------------------------------------------------
 Cycle:      8
  WF centre and spread    1  (  0.000002, -0.000006,  0.000022 )     0.95487823
  WF centre and spread    2  (  0.000001,  1.413085, -0.000019 )     0.95106765
  WF centre and spread    3  (  0.000006,  1.413066,  3.325421 )     0.95109200
  WF centre and spread    4  (  1.223778,  0.706522,  3.325380 )     0.95474993
  WF centre and spread    5  ( -0.000001,  0.706833,  0.000000 )     0.56882023
  WF centre and spread    6  ( -0.611635,  1.766218,  0.000001 )     0.56882036
  WF centre and spread    7  (  0.611636,  1.766216,  0.000001 )     0.56882024
  WF centre and spread    8  ( -0.611633,  1.059964,  3.325394 )     0.56882176
  WF centre and spread    9  (  0.611631,  1.059962,  3.325394 )     0.56882177
  WF centre and spread   10  (  0.000001,  2.119341,  3.325395 )     0.56882169
  Sum of centres and spreads (  1.223787, 12.011202, 16.626989 )     7.22471386
 
      8    -0.145E-03     0.0074893015        7.2247136358       2.73  <-- CONV
        O_D=      0.0204805 O_OD=      1.3624241 O_TOT=      7.2247136 <-- SPRD
 Delta: O_D= -0.1768226E-04 O_OD= -0.1272312E-03 O_TOT= -0.1449135E-03 <-- DLTA
 ------------------------------------------------------------------------------
 Cycle:      9
  WF centre and spread    1  (  0.000002, -0.000006,  0.000022 )     0.95486228
  WF centre and spread    2  (  0.000001,  1.413085, -0.000019 )     0.95108419
  WF centre and spread    3  (  0.000006,  1.413066,  3.325421 )     0.95110639
  WF centre and spread    4  (  1.223778,  0.706522,  3.325380 )     0.95473602
  WF centre and spread    5  ( -0.000001,  0.706833,  0.000000 )     0.56880752
  WF centre and spread    6  ( -0.611635,  1.766218,  0.000001 )     0.56880765
  WF centre and spread    7  (  0.611636,  1.766216,  0.000001 )     0.56880753
  WF centre and spread    8  ( -0.611633,  1.059964,  3.325394 )     0.56880902
  WF centre and spread    9  (  0.611632,  1.059962,  3.325394 )     0.56880904
  WF centre and spread   10  (  0.000001,  2.119341,  3.325395 )     0.56880895
  Sum of centres and spreads (  1.223787, 12.011202, 16.626989 )     7.22463859
 
      9    -0.753E-04     0.0052772195        7.2246383676       2.73  <-- CONV
        O_D=      0.0204797 O_OD=      1.3623497 O_TOT=      7.2246384 <-- SPRD
 Delta: O_D= -0.8586743E-06 O_OD= -0.7440952E-04 O_TOT= -0.7526820E-04 <-- DLTA
 ------------------------------------------------------------------------------
 Cycle:     10
  WF centre and spread    1  (  0.000002, -0.000006,  0.000022 )     0.95484777
  WF centre and spread    2  (  0.000001,  1.413085, -0.000020 )     0.95110443
  WF centre and spread    3  (  0.000006,  1.413066,  3.325421 )     0.95112499
  WF centre and spread    4  (  1.223778,  0.706522,  3.325380 )     0.95472309
  WF centre and spread    5  ( -0.000001,  0.706833,  0.000001 )     0.56879947
  WF centre and spread    6  ( -0.611635,  1.766218,  0.000001 )     0.56879961
  WF centre and spread    7  (  0.611636,  1.766216,  0.000001 )     0.56879948
  WF centre and spread    8  ( -0.611633,  1.059964,  3.325394 )     0.56880098
  WF centre and spread    9  (  0.611632,  1.059962,  3.325394 )     0.56880099
  WF centre and spread   10  (  0.000001,  2.119341,  3.325395 )     0.56880091
  Sum of centres and spreads (  1.223787, 12.011202, 16.626989 )     7.22460172
 
     10    -0.369E-04     0.0038257135        7.2246014959       2.74  <-- CONV
        O_D=      0.0204747 O_OD=      1.3623177 O_TOT=      7.2246015 <-- SPRD
 Delta: O_D= -0.4957865E-05 O_OD= -0.3191378E-04 O_TOT= -0.3687165E-04 <-- DLTA
 ------------------------------------------------------------------------------
 Cycle:     11
  WF centre and spread    1  (  0.000002, -0.000006,  0.000022 )     0.95483620
  WF centre and spread    2  (  0.000001,  1.413085, -0.000020 )     0.95112337
  WF centre and spread    3  (  0.000006,  1.413066,  3.325422 )     0.95114246
  WF centre and spread    4  (  1.223778,  0.706522,  3.325380 )     0.95471299
  WF centre and spread    5  ( -0.000001,  0.706833,  0.000001 )     0.56879381
  WF centre and spread    6  ( -0.611635,  1.766218,  0.000001 )     0.56879394
  WF centre and spread    7  (  0.611636,  1.766216,  0.000001 )     0.56879382
  WF centre and spread    8  ( -0.611633,  1.059964,  3.325394 )     0.56879533
  WF centre and spread    9  (  0.611632,  1.059962,  3.325394 )     0.56879534
  WF centre and spread   10  (  0.000001,  2.119341,  3.325395 )     0.56879527
  Sum of centres and spreads (  1.223787, 12.011202, 16.626989 )     7.22458253
 
     11    -0.192E-04     0.0026564057        7.2245823016       2.75  <-- CONV
        O_D=      0.0204723 O_OD=      1.3623009 O_TOT=      7.2245823 <-- SPRD
 Delta: O_D= -0.2396467E-05 O_OD= -0.1679786E-04 O_TOT= -0.1919433E-04 <-- DLTA
 ------------------------------------------------------------------------------
 Cycle:     12
  WF centre and spread    1  (  0.000002, -0.000006,  0.000022 )     0.95483086
  WF centre and spread    2  (  0.000001,  1.413085, -0.000020 )     0.95113209
  WF centre and spread    3  (  0.000006,  1.413066,  3.325422 )     0.95115021
  WF centre and spread    4  (  1.223778,  0.706522,  3.325380 )     0.95470858
  WF centre and spread    5  ( -0.000001,  0.706833,  0.000001 )     0.56879170
  WF centre and spread    6  ( -0.611635,  1.766218,  0.000001 )     0.56879183
  WF centre and spread    7  (  0.611636,  1.766216,  0.000001 )     0.56879171
  WF centre and spread    8  ( -0.611633,  1.059964,  3.325393 )     0.56879322
  WF centre and spread    9  (  0.611632,  1.059962,  3.325394 )     0.56879323
  WF centre and spread   10  (  0.000001,  2.119341,  3.325395 )     0.56879316
  Sum of centres and spreads (  1.223787, 12.011202, 16.626989 )     7.22457660
 
     12    -0.593E-05     0.0017425266        7.2245763761       2.75  <-- CONV
        O_D=      0.0204719 O_OD=      1.3622954 O_TOT=      7.2245764 <-- SPRD
 Delta: O_D= -0.3995883E-06 O_OD= -0.5525907E-05 O_TOT= -0.5925495E-05 <-- DLTA
 ------------------------------------------------------------------------------
 Cycle:     13
  WF centre and spread    1  (  0.000002, -0.000006,  0.000022 )     0.95482873
  WF centre and spread    2  (  0.000001,  1.413085, -0.000021 )     0.95113398
  WF centre and spread    3  (  0.000006,  1.413066,  3.325422 )     0.95115160
  WF centre and spread    4  (  1.223778,  0.706522,  3.325380 )     0.95470697
  WF centre and spread    5  ( -0.000001,  0.706833,  0.000001 )     0.56879152
  WF centre and spread    6  ( -0.611635,  1.766218,  0.000001 )     0.56879166
  WF centre and spread    7  (  0.611636,  1.766216,  0.000002 )     0.56879153
  WF centre and spread    8  ( -0.611633,  1.059964,  3.325393 )     0.56879304
  WF centre and spread    9  (  0.611632,  1.059962,  3.325393 )     0.56879305
  WF centre and spread   10  (  0.000001,  2.119341,  3.325395 )     0.56879298
  Sum of centres and spreads (  1.223787, 12.011202, 16.626989 )     7.22457506
 
     13    -0.154E-05     0.0008350262        7.2245748349       2.76  <-- CONV
        O_D=      0.0204716 O_OD=      1.3622942 O_TOT=      7.2245748 <-- SPRD
 Delta: O_D= -0.3275999E-06 O_OD= -0.1213585E-05 O_TOT= -0.1541185E-05 <-- DLTA
 ------------------------------------------------------------------------------
 Cycle:     14
  WF centre and spread    1  (  0.000002, -0.000006,  0.000022 )     0.95482440
  WF centre and spread    2  (  0.000001,  1.413085, -0.000021 )     0.95113832
  WF centre and spread    3  (  0.000006,  1.413066,  3.325423 )     0.95115492
  WF centre and spread    4  (  1.223778,  0.706522,  3.325380 )     0.95470364
  WF centre and spread    5  ( -0.000001,  0.706833,  0.000001 )     0.56879131
  WF centre and spread    6  ( -0.611635,  1.766218,  0.000001 )     0.56879145
  WF centre and spread    7  (  0.611636,  1.766216,  0.000002 )     0.56879132
  WF centre and spread    8  ( -0.611633,  1.059964,  3.325393 )     0.56879283
  WF centre and spread    9  (  0.611632,  1.059962,  3.325393 )     0.56879283
  WF centre and spread   10  (  0.000001,  2.119341,  3.325395 )     0.56879277
  Sum of centres and spreads (  1.223787, 12.011202, 16.626989 )     7.22457379
 
     14    -0.127E-05     0.0006949655        7.2245735613       2.76  <-- CONV
        O_D=      0.0204715 O_OD=      1.3622930 O_TOT=      7.2245736 <-- SPRD
 Delta: O_D= -0.1154625E-06 O_OD= -0.1158175E-05 O_TOT= -0.1273637E-05 <-- DLTA
 ------------------------------------------------------------------------------
 Cycle:     15
  WF centre and spread    1  (  0.000002, -0.000006,  0.000022 )     0.95481957
  WF centre and spread    2  (  0.000001,  1.413085, -0.000021 )     0.95114324
  WF centre and spread    3  (  0.000006,  1.413066,  3.325423 )     0.95115881
  WF centre and spread    4  (  1.223778,  0.706522,  3.325380 )     0.95469983
[...]
 Delta: O_D=  0.1775524E-12 O_OD= -0.4440892E-12 O_TOT= -0.2664535E-12 <-- DLTA
 ------------------------------------------------------------------------------
 Cycle:     87
  WF centre and spread    1  (  0.000002, -0.000006,  0.000026 )     0.95474962
  WF centre and spread    2  (  0.000001,  1.413085, -0.000032 )     0.95121387
  WF centre and spread    3  (  0.000006,  1.413066,  3.325437 )     0.95121420
  WF centre and spread    4  (  1.223778,  0.706522,  3.325380 )     0.95464508
  WF centre and spread    5  ( -0.000001,  0.706832,  0.000001 )     0.56879086
  WF centre and spread    6  ( -0.611636,  1.766219,  0.000004 )     0.56879098
  WF centre and spread    7  (  0.611637,  1.766216,  0.000005 )     0.56879087
  WF centre and spread    8  ( -0.611633,  1.059964,  3.325388 )     0.56879237
  WF centre and spread    9  (  0.611632,  1.059961,  3.325389 )     0.56879236
  WF centre and spread   10  (  0.000001,  2.119342,  3.325391 )     0.56879233
  Sum of centres and spreads (  1.223787, 12.011201, 16.626989 )     7.22457254
 
     87    -0.395E-12     0.0000040285        7.2245723120       3.16  <-- CONV
        O_D=      0.0204713 O_OD=      1.3622919 O_TOT=      7.2245723 <-- SPRD
 Delta: O_D=  0.2663772E-12 O_OD= -0.6619150E-12 O_TOT= -0.3952394E-12 <-- DLTA
 ------------------------------------------------------------------------------
 Cycle:     88
  WF centre and spread    1  (  0.000002, -0.000006,  0.000026 )     0.95474944
  WF centre and spread    2  (  0.000001,  1.413085, -0.000032 )     0.95121406
  WF centre and spread    3  (  0.000006,  1.413066,  3.325437 )     0.95121434
  WF centre and spread    4  (  1.223778,  0.706522,  3.325380 )     0.95464494
  WF centre and spread    5  ( -0.000001,  0.706832,  0.000001 )     0.56879086
  WF centre and spread    6  ( -0.611636,  1.766219,  0.000004 )     0.56879098
  WF centre and spread    7  (  0.611637,  1.766216,  0.000005 )     0.56879087
  WF centre and spread    8  ( -0.611633,  1.059964,  3.325388 )     0.56879237
  WF centre and spread    9  (  0.611632,  1.059961,  3.325388 )     0.56879236
  WF centre and spread   10  (  0.000001,  2.119342,  3.325391 )     0.56879233
  Sum of centres and spreads (  1.223787, 12.011201, 16.626989 )     7.22457254
 
     88    -0.640E-10     0.0000040274        7.2245723120       3.17  <-- CONV
        O_D=      0.0204713 O_OD=      1.3622919 O_TOT=      7.2245723 <-- SPRD
 Delta: O_D=  0.4387579E-10 O_OD= -0.1078457E-09 O_TOT= -0.6397016E-10 <-- DLTA
 ------------------------------------------------------------------------------
 Cycle:     89
  WF centre and spread    1  (  0.000002, -0.000006,  0.000026 )     0.95474943
  WF centre and spread    2  (  0.000001,  1.413085, -0.000032 )     0.95121406
  WF centre and spread    3  (  0.000006,  1.413066,  3.325437 )     0.95121435
  WF centre and spread    4  (  1.223778,  0.706522,  3.325380 )     0.95464494
  WF centre and spread    5  ( -0.000001,  0.706832,  0.000001 )     0.56879086
  WF centre and spread    6  ( -0.611636,  1.766219,  0.000004 )     0.56879098
  WF centre and spread    7  (  0.611637,  1.766216,  0.000005 )     0.56879087
  WF centre and spread    8  ( -0.611633,  1.059964,  3.325388 )     0.56879237
  WF centre and spread    9  (  0.611632,  1.059961,  3.325388 )     0.56879236
  WF centre and spread   10  (  0.000001,  2.119342,  3.325391 )     0.56879233
  Sum of centres and spreads (  1.223787, 12.011201, 16.626989 )     7.22457254
 
     89    -0.624E-12     0.0000039802        7.2245723120       3.17  <-- CONV
        O_D=      0.0204713 O_OD=      1.3622919 O_TOT=      7.2245723 <-- SPRD
 Delta: O_D=  0.4312696E-12 O_OD= -0.1054046E-11 O_TOT= -0.6235013E-12 <-- DLTA
 ------------------------------------------------------------------------------
 Cycle:     90
  WF centre and spread    1  (  0.000002, -0.000006,  0.000026 )     0.95474917
  WF centre and spread    2  (  0.000001,  1.413085, -0.000032 )     0.95121432
  WF centre and spread    3  (  0.000006,  1.413066,  3.325437 )     0.95121455
  WF centre and spread    4  (  1.223778,  0.706522,  3.325380 )     0.95464474
  WF centre and spread    5  ( -0.000001,  0.706832,  0.000001 )     0.56879086
  WF centre and spread    6  ( -0.611636,  1.766219,  0.000004 )     0.56879098
  WF centre and spread    7  (  0.611637,  1.766216,  0.000005 )     0.56879087
  WF centre and spread    8  ( -0.611633,  1.059964,  3.325388 )     0.56879237
  WF centre and spread    9  (  0.611632,  1.059961,  3.325388 )     0.56879236
  WF centre and spread   10  (  0.000001,  2.119342,  3.325391 )     0.56879233
  Sum of centres and spreads (  1.223787, 12.011201, 16.626989 )     7.22457254
 
     90    -0.900E-10     0.0000039803        7.2245723119       3.18  <-- CONV
        O_D=      0.0204713 O_OD=      1.3622919 O_TOT=      7.2245723 <-- SPRD
 Delta: O_D=  0.6248761E-10 O_OD= -0.1525262E-09 O_TOT= -0.9003820E-10 <-- DLTA
 ------------------------------------------------------------------------------
 Cycle:     91
  WF centre and spread    1  (  0.000002, -0.000006,  0.000026 )     0.95474916
  WF centre and spread    2  (  0.000001,  1.413085, -0.000032 )     0.95121433
  WF centre and spread    3  (  0.000006,  1.413066,  3.325437 )     0.95121456
  WF centre and spread    4  (  1.223778,  0.706522,  3.325380 )     0.95464473
  WF centre and spread    5  ( -0.000001,  0.706832,  0.000001 )     0.56879086
  WF centre and spread    6  ( -0.611636,  1.766219,  0.000004 )     0.56879098
  WF centre and spread    7  (  0.611637,  1.766216,  0.000005 )     0.56879087
  WF centre and spread    8  ( -0.611633,  1.059964,  3.325388 )     0.56879237
  WF centre and spread    9  (  0.611632,  1.059961,  3.325388 )     0.56879236
  WF centre and spread   10  (  0.000001,  2.119342,  3.325391 )     0.56879233
  Sum of centres and spreads (  1.223787, 12.011201, 16.626989 )     7.22457254
 
     91    -0.311E-11     0.0000039445        7.2245723119       3.18  <-- CONV
        O_D=      0.0204713 O_OD=      1.3622919 O_TOT=      7.2245723 <-- SPRD
 Delta: O_D=  0.2014847E-11 O_OD= -0.5130563E-11 O_TOT= -0.3114842E-11 <-- DLTA
 ------------------------------------------------------------------------------
 Cycle:     92
  WF centre and spread    1  (  0.000002, -0.000006,  0.000026 )     0.95474916
  WF centre and spread    2  (  0.000001,  1.413085, -0.000032 )     0.95121433
  WF centre and spread    3  (  0.000006,  1.413066,  3.325437 )     0.95121456
  WF centre and spread    4  (  1.223778,  0.706522,  3.325380 )     0.95464473
  WF centre and spread    5  ( -0.000001,  0.706832,  0.000001 )     0.56879086
  WF centre and spread    6  ( -0.611636,  1.766219,  0.000004 )     0.56879098
  WF centre and spread    7  (  0.611637,  1.766216,  0.000005 )     0.56879087
  WF centre and spread    8  ( -0.611633,  1.059964,  3.325388 )     0.56879237
  WF centre and spread    9  (  0.611632,  1.059961,  3.325388 )     0.56879236
  WF centre and spread   10  (  0.000001,  2.119342,  3.325391 )     0.56879233
  Sum of centres and spreads (  1.223787, 12.011201, 16.626989 )     7.22457254
 
     92    -0.250E-12     0.0000039205        7.2245723119       3.19  <-- CONV
        O_D=      0.0204713 O_OD=      1.3622919 O_TOT=      7.2245723 <-- SPRD
 Delta: O_D=  0.1627518E-12 O_OD= -0.4118927E-12 O_TOT= -0.2495781E-12 <-- DLTA
 ------------------------------------------------------------------------------
 Cycle:     93
  WF centre and spread    1  (  0.000002, -0.000006,  0.000026 )     0.95474916
  WF centre and spread    2  (  0.000001,  1.413085, -0.000032 )     0.95121433
  WF centre and spread    3  (  0.000006,  1.413066,  3.325437 )     0.95121456
  WF centre and spread    4  (  1.223778,  0.706522,  3.325380 )     0.95464473
  WF centre and spread    5  ( -0.000001,  0.706832,  0.000001 )     0.56879086
  WF centre and spread    6  ( -0.611636,  1.766219,  0.000004 )     0.56879098
  WF centre and spread    7  (  0.611637,  1.766216,  0.000005 )     0.56879087
  WF centre and spread    8  ( -0.611633,  1.059964,  3.325388 )     0.56879237
  WF centre and spread    9  (  0.611632,  1.059961,  3.325388 )     0.56879236
  WF centre and spread   10  (  0.000001,  2.119342,  3.325391 )     0.56879233
  Sum of centres and spreads (  1.223787, 12.011201, 16.626989 )     7.22457254
 
     93    -0.377E-12     0.0000039187        7.2245723119       3.19  <-- CONV
        O_D=      0.0204713 O_OD=      1.3622919 O_TOT=      7.2245723 <-- SPRD
 Delta: O_D=  0.2445960E-12 O_OD= -0.6212808E-12 O_TOT= -0.3765876E-12 <-- DLTA
 ------------------------------------------------------------------------------
 Cycle:     94
  WF centre and spread    1  (  0.000002, -0.000006,  0.000026 )     0.95474916
  WF centre and spread    2  (  0.000001,  1.413085, -0.000032 )     0.95121433
  WF centre and spread    3  (  0.000006,  1.413066,  3.325437 )     0.95121456
  WF centre and spread    4  (  1.223778,  0.706522,  3.325380 )     0.95464473
  WF centre and spread    5  ( -0.000001,  0.706832,  0.000001 )     0.56879086
  WF centre and spread    6  ( -0.611636,  1.766219,  0.000004 )     0.56879098
  WF centre and spread    7  (  0.611637,  1.766216,  0.000005 )     0.56879087
  WF centre and spread    8  ( -0.611633,  1.059964,  3.325388 )     0.56879237
  WF centre and spread    9  (  0.611632,  1.059961,  3.325388 )     0.56879236
  WF centre and spread   10  (  0.000001,  2.119342,  3.325391 )     0.56879233
  Sum of centres and spreads (  1.223787, 12.011201, 16.626989 )     7.22457254
 
     94    -0.498E-12     0.0000039162        7.2245723119       3.20  <-- CONV
        O_D=      0.0204713 O_OD=      1.3622919 O_TOT=      7.2245723 <-- SPRD
 Delta: O_D=  0.3263015E-12 O_OD= -0.8246737E-12 O_TOT= -0.4982681E-12 <-- DLTA
 ------------------------------------------------------------------------------
 Cycle:     95
  WF centre and spread    1  (  0.000002, -0.000006,  0.000026 )     0.95474916
  WF centre and spread    2  (  0.000001,  1.413085, -0.000032 )     0.95121433
  WF centre and spread    3  (  0.000006,  1.413066,  3.325437 )     0.95121456
  WF centre and spread    4  (  1.223778,  0.706522,  3.325380 )     0.95464473
  WF centre and spread    5  ( -0.000001,  0.706832,  0.000001 )     0.56879086
  WF centre and spread    6  ( -0.611636,  1.766219,  0.000004 )     0.56879098
  WF centre and spread    7  (  0.611637,  1.766216,  0.000005 )     0.56879087
  WF centre and spread    8  ( -0.611633,  1.059964,  3.325388 )     0.56879237
  WF centre and spread    9  (  0.611632,  1.059961,  3.325388 )     0.56879236
  WF centre and spread   10  (  0.000001,  2.119342,  3.325391 )     0.56879233
  Sum of centres and spreads (  1.223787, 12.011201, 16.626989 )     7.22457254
 
     95    -0.623E-12     0.0000039129        7.2245723119       3.20  <-- CONV
        O_D=      0.0204713 O_OD=      1.3622919 O_TOT=      7.2245723 <-- SPRD
 Delta: O_D=  0.4077814E-12 O_OD= -0.1030065E-11 O_TOT= -0.6226131E-12 <-- DLTA
 ------------------------------------------------------------------------------
 Cycle:     96
  WF centre and spread    1  (  0.000002, -0.000006,  0.000026 )     0.95474916
  WF centre and spread    2  (  0.000001,  1.413085, -0.000032 )     0.95121433
  WF centre and spread    3  (  0.000006,  1.413066,  3.325437 )     0.95121456
  WF centre and spread    4  (  1.223778,  0.706522,  3.325380 )     0.95464472
  WF centre and spread    5  ( -0.000001,  0.706832,  0.000001 )     0.56879086
  WF centre and spread    6  ( -0.611636,  1.766219,  0.000004 )     0.56879098
  WF centre and spread    7  (  0.611637,  1.766216,  0.000005 )     0.56879087
  WF centre and spread    8  ( -0.611633,  1.059964,  3.325388 )     0.56879237
  WF centre and spread    9  (  0.611632,  1.059961,  3.325388 )     0.56879236
  WF centre and spread   10  (  0.000001,  2.119342,  3.325391 )     0.56879233
  Sum of centres and spreads (  1.223787, 12.011201, 16.626989 )     7.22457254
 
     96    -0.748E-12     0.0000039089        7.2245723119       3.20  <-- CONV
        O_D=      0.0204713 O_OD=      1.3622919 O_TOT=      7.2245723 <-- SPRD
 Delta: O_D=  0.4890220E-12 O_OD= -0.1236566E-11 O_TOT= -0.7478462E-12 <-- DLTA
 ------------------------------------------------------------------------------
 Cycle:     97
  WF centre and spread    1  (  0.000002, -0.000006,  0.000026 )     0.95474916
  WF centre and spread    2  (  0.000001,  1.413085, -0.000032 )     0.95121433
  WF centre and spread    3  (  0.000006,  1.413066,  3.325437 )     0.95121456
  WF centre and spread    4  (  1.223778,  0.706522,  3.325380 )     0.95464472
  WF centre and spread    5  ( -0.000001,  0.706832,  0.000001 )     0.56879086
  WF centre and spread    6  ( -0.611636,  1.766219,  0.000004 )     0.56879098
  WF centre and spread    7  (  0.611637,  1.766216,  0.000005 )     0.56879087
  WF centre and spread    8  ( -0.611633,  1.059964,  3.325388 )     0.56879237
  WF centre and spread    9  (  0.611632,  1.059961,  3.325388 )     0.56879236
  WF centre and spread   10  (  0.000001,  2.119342,  3.325391 )     0.56879233
  Sum of centres and spreads (  1.223787, 12.011201, 16.626989 )     7.22457254
 
     97    -0.123E-12     0.0000039042        7.2245723119       3.21  <-- CONV
        O_D=      0.0204713 O_OD=      1.3622919 O_TOT=      7.2245723 <-- SPRD
 Delta: O_D=  0.8213222E-13 O_OD= -0.2058353E-12 O_TOT= -0.1234568E-12 <-- DLTA
 ------------------------------------------------------------------------------
 Cycle:     98
  WF centre and spread    1  (  0.000002, -0.000006,  0.000026 )     0.95474916
  WF centre and spread    2  (  0.000001,  1.413085, -0.000032 )     0.95121433
  WF centre and spread    3  (  0.000006,  1.413066,  3.325437 )     0.95121456
  WF centre and spread    4  (  1.223778,  0.706522,  3.325380 )     0.95464472
  WF centre and spread    5  ( -0.000001,  0.706832,  0.000001 )     0.56879086
  WF centre and spread    6  ( -0.611636,  1.766219,  0.000004 )     0.56879098
  WF centre and spread    7  (  0.611637,  1.766216,  0.000005 )     0.56879087
  WF centre and spread    8  ( -0.611633,  1.059964,  3.325388 )     0.56879237
  WF centre and spread    9  (  0.611632,  1.059961,  3.325388 )     0.56879236
  WF centre and spread   10  (  0.000001,  2.119342,  3.325391 )     0.56879233
  Sum of centres and spreads (  1.223787, 12.011201, 16.626989 )     7.22457254
 
     98    -0.248E-12     0.0000039035        7.2245723119       3.21  <-- CONV
        O_D=      0.0204713 O_OD=      1.3622919 O_TOT=      7.2245723 <-- SPRD
 Delta: O_D=  0.1642055E-12 O_OD= -0.4118927E-12 O_TOT= -0.2478018E-12 <-- DLTA
 ------------------------------------------------------------------------------
 Cycle:     99
  WF centre and spread    1  (  0.000002, -0.000006,  0.000026 )     0.95474916
  WF centre and spread    2  (  0.000001,  1.413085, -0.000032 )     0.95121433
  WF centre and spread    3  (  0.000006,  1.413066,  3.325437 )     0.95121456
  WF centre and spread    4  (  1.223778,  0.706522,  3.325380 )     0.95464472
  WF centre and spread    5  ( -0.000001,  0.706832,  0.000001 )     0.56879086
  WF centre and spread    6  ( -0.611636,  1.766219,  0.000004 )     0.56879098
  WF centre and spread    7  (  0.611637,  1.766216,  0.000005 )     0.56879087
  WF centre and spread    8  ( -0.611633,  1.059964,  3.325388 )     0.56879237
  WF centre and spread    9  (  0.611632,  1.059961,  3.325388 )     0.56879236
  WF centre and spread   10  (  0.000001,  2.119342,  3.325391 )     0.56879233
  Sum of centres and spreads (  1.223787, 12.011201, 16.626989 )     7.22457254
 
     99    -0.373E-12     0.0000039021        7.2245723119       3.22  <-- CONV
        O_D=      0.0204713 O_OD=      1.3622919 O_TOT=      7.2245723 <-- SPRD
 Delta: O_D=  0.2462683E-12 O_OD= -0.6199485E-12 O_TOT= -0.3730349E-12 <-- DLTA
 ------------------------------------------------------------------------------
 Cycle:    100
  WF centre and spread    1  (  0.000002, -0.000006,  0.000026 )     0.95474915
  WF centre and spread    2  (  0.000001,  1.413085, -0.000032 )     0.95121434
  WF centre and spread    3  (  0.000006,  1.413066,  3.325437 )     0.95121456
  WF centre and spread    4  (  1.223778,  0.706522,  3.325380 )     0.95464472
  WF centre and spread    5  ( -0.000001,  0.706832,  0.000001 )     0.56879086
  WF centre and spread    6  ( -0.611636,  1.766219,  0.000004 )     0.56879098
  WF centre and spread    7  (  0.611637,  1.766216,  0.000005 )     0.56879087
  WF centre and spread    8  ( -0.611633,  1.059964,  3.325388 )     0.56879237
  WF centre and spread    9  (  0.611632,  1.059961,  3.325388 )     0.56879236
  WF centre and spread   10  (  0.000001,  2.119342,  3.325391 )     0.56879233
  Sum of centres and spreads (  1.223787, 12.011201, 16.626989 )     7.22457254
 
    100    -0.496E-12     0.0000039000        7.2245723119       3.22  <-- CONV
        O_D=      0.0204713 O_OD=      1.3622919 O_TOT=      7.2245723 <-- SPRD
 Delta: O_D=  0.3281056E-12 O_OD= -0.8228973E-12 O_TOT= -0.4956036E-12 <-- DLTA
 ------------------------------------------------------------------------------

 Writing checkpoint file wannier90.chk... done

 Final State
  WF centre and spread    1  (  0.000002, -0.000006,  0.000026 )     0.95474915
  WF centre and spread    2  (  0.000001,  1.413085, -0.000032 )     0.95121434
  WF centre and spread    3  (  0.000006,  1.413066,  3.325437 )     0.95121456
  WF centre and spread    4  (  1.223778,  0.706522,  3.325380 )     0.95464472
  WF centre and spread    5  ( -0.000001,  0.706832,  0.000001 )     0.56879086
  WF centre and spread    6  ( -0.611636,  1.766219,  0.000004 )     0.56879098
  WF centre and spread    7  (  0.611637,  1.766216,  0.000005 )     0.56879087
  WF centre and spread    8  ( -0.611633,  1.059964,  3.325388 )     0.56879237
  WF centre and spread    9  (  0.611632,  1.059961,  3.325388 )     0.56879236
  WF centre and spread   10  (  0.000001,  2.119342,  3.325391 )     0.56879233
  Sum of centres and spreads (  1.223787, 12.011201, 16.626989 )     7.22457254
 
         Spreads (Ang^2)       Omega I      =     5.841809057
        ================       Omega D      =     0.020471323
                               Omega OD     =     1.362291932
    Final Spread (Ang^2)       Omega Total  =     7.224572312
 ------------------------------------------------------------------------------
 Time for wannierise            0.580 (sec)

 Writing checkpoint file wannier90.chk... done

 *---------------------------------------------------------------------------*
 |                               PLOTTING                                    |
 *---------------------------------------------------------------------------*
 
 
 Calculating interpolated band-structure
 
 Time to calculate interpolated band structure       2.409 (sec)
 
 Time for plotting              3.016 (sec)
 Total Execution Time           8.439 (sec)

 *===========================================================================*
 |                             TIMING INFORMATION                            |
 *===========================================================================*
 |    Tag                                                Ncalls      Time (s)|
 |---------------------------------------------------------------------------|
 |kmesh: get                                        :         1         0.395|
 |overlap: allocate                                 :         1         0.003|
 |overlap: read                                     :         1         1.772|
 |dis: main                                         :         1         2.592|
 |wann: main                                        :         1         0.580|
 |plot: main                                        :         1         3.016|
 *---------------------------------------------------------------------------*
 
 All done: wannier90 exiting
