 written on  8Nov2021 at 22:56:44 
           4
         687
    1    1    1    1    1    1    2    2    2    1    1    1    1    1    1
    1    1    1    1    1    1    1    1    1    2    2    2    1    1    1
    1    1    1    1    1    1    1    1    1    1    1    1    1    1    1
    1    1    1    1    1    1    1    1    1    2    2    2    1    1    1
    1    1    1    1    1    1    1    1    1    1    1    1    1    1    1
    1    1    1    1    1    1    1    1    1    1    1    1    1    1    1
    1    1    1    2    2    2    1    1    1    1    1    1    1    1    1
    1    1    1    1    1    1    1    1    1    1    1    1    1    1    1
    1    1    1    1    1    1    1    1    1    1    1    1    1    1    1
    1    1    1    1    1    1    1    1    1    1    1    1    1    1    1
    1    1    1    1    1    1    1    1    1    1    1    1    1    1    1
    1    1    1    1    1    1    1    1    1    1    1    1    1    1    1
    1    1    1    1    1    1    1    1    1    1    1    1    1    1    1
    1    1    1    1    1    1    1    1    1    1    1    1    1    1    1
    1    1    1    1    1    1    1    1    1    1    1    1    1    1    1
    1    1    1    1    1    1    1    1    1    1    1    1    1    1    1
    1    1    1    1    1    1    1    1    1    1    1    1    1    1    1
    1    1    1    1    1    1    1    1    1    1    1    1    1    1    1
    1    1    1    1    1    1    1    1    1    1    1    1    1    1    1
    1    1    1    1    1    1    1    1    1    1    1    1    1    1    1
    1    1    1    1    1    1    1    1    1    1    1    1    1    1    1
    1    1    1    1    1    1    1    1    1    1    1    1    1    1    1
    1    1    1    1    1    1    1    1    1    1    1    1    1    1    1
    1    1    1    1    1    1    1    1    1    1    1    1    1    1    1
    1    1    1    1    1    1    1    1    1    1    1    1    1    1    1
    1    1    1    1    1    1    1    1    1    1    1    1    1    1    1
    1    1    1    1    1    1    1    1    1    1    1    1    1    1    1
    1    1    1    1    1    1    1    1    1    1    1    1    1    1    1
    1    1    1    1    1    1    1    1    1    1    1    1    1    1    1
    1    1    1    1    1    1    1    1    1    1    1    1    1    1    1
    1    1    1    1    1    1    1    1    1    1    1    1    1    1    1
    1    1    1    1    1    1    1    1    1    1    1    1    1    1    1
    1    1    1    1    1    1    1    1    1    1    1    1    1    1    1
    1    1    1    1    1    1    1    1    1    1    1    1    1    1    1
    1    1    1    1    1    1    1    1    1    1    1    1    1    1    1
    1    1    1    1    1    1    1    1    1    1    1    1    1    1    1
    1    1    1    1    1    1    1    1    1    1    1    1    1    1    1
    1    1    1    1    1    1    1    1    1    1    1    1    1    1    1
    1    1    1    1    1    1    1    1    1    1    1    1    1    1    1
    1    1    1    1    1    1    2    2    2    1    1    1    1    1    1
    1    1    1    1    1    1    1    1    1    1    1    1    1    1    1
    1    1    1    1    1    1    1    1    1    1    1    1    1    1    1
    2    2    2    1    1    1    1    1    1    1    1    1    1    1    1
    1    1    1    1    1    1    1    1    1    1    1    1    1    1    1
    2    2    2    1    1    1    1    1    1    1    1    1    1    1    1
    1    1    1    2    2    2    1    1    1    1    1    1
   -9   -5   -1    1    1    0.000016   -0.000000
   -9   -5   -1    2    1   -0.000045    0.000000
   -9   -5   -1    3    1   -0.000150   -0.000000
   -9   -5   -1    4    1    0.000063    0.000000
   -9   -5   -1    1    2   -0.000116    0.000000
   -9   -5   -1    2    2    0.000019   -0.000000
   -9   -5   -1    3    2    0.000043    0.000000
   -9   -5   -1    4    2    0.000094   -0.000000
   -9   -5   -1    1    3   -0.000083   -0.000000
   -9   -5   -1    2    3    0.000018    0.000000
   -9   -5   -1    3    3    0.000019    0.000000
   -9   -5   -1    4    3   -0.000012   -0.000000
   -9   -5   -1    1    4   -0.000092   -0.000000
   -9   -5   -1    2    4    0.000012    0.000000
   -9   -5   -1    3    4    0.000080    0.000000
   -9   -5   -1    4    4    0.000016   -0.000000
   -9   -5    0    1    1   -0.000056   -0.000000
   -9   -5    0    2    1   -0.000075    0.000000
   -9   -5    0    3    1    0.000071    0.000000
   -9   -5    0    4    1   -0.000002    0.000000
   -9   -5    0    1    2    0.000253   -0.000000
   -9   -5    0    2    2   -0.000071    0.000000
   -9   -5    0    3    2   -0.000025   -0.000000
   -9   -5    0    4    2    0.000064   -0.000000
   -9   -5    0    1    3   -0.000083    0.000000
   -9   -5    0    2    3    0.000018   -0.000000
   -9   -5    0    3    3   -0.000071   -0.000000
   -9   -5    0    4    3    0.000010    0.000000
   -9   -5    0    1    4   -0.000092    0.000000
   -9   -5    0    2    4    0.000012   -0.000000
   -9   -5    0    3    4    0.000085   -0.000000
   -9   -5    0    4    4   -0.000056    0.000000
   -9   -5    1    1    1    0.000016   -0.000000
   -9   -5    1    2    1   -0.000045    0.000000
   -9   -5    1    3    1    0.000071    0.000000
   -9   -5    1    4    1   -0.000002   -0.000000
   -9   -5    1    1    2   -0.000116    0.000000
   -9   -5    1    2    2    0.000019    0.000000
   -9   -5    1    3    2   -0.000025    0.000000
   -9   -5    1    4    2    0.000064   -0.000000
   -9   -5    1    1    3    0.000045    0.000000
   -9   -5    1    2    3   -0.000050    0.000000
   -9   -5    1    3    3    0.000019    0.000000
   -9   -5    1    4    3   -0.000012    0.000000
   -9   -5    1    1    4    0.000053   -0.000000
   -9   -5    1    2    4   -0.000093   -0.000000
   -9   -5    1    3    4    0.000080   -0.000000
   -9   -5    1    4    4    0.000016    0.000000
   -9   -4   -1    1    1    0.000016    0.000000
   -9   -4   -1    2    1   -0.000012   -0.000000
   -9   -4   -1    3    1    0.000094   -0.000000
   -9   -4   -1    4    1    0.000063    0.000000
   -9   -4   -1    1    2    0.000080    0.000000
   -9   -4   -1    2    2    0.000019   -0.000000
   -9   -4   -1    3    2    0.000043    0.000000
   -9   -4   -1    4    2   -0.000150   -0.000000
   -9   -4   -1    1    3    0.000012   -0.000000
   -9   -4   -1    2    3    0.000018    0.000000
   -9   -4   -1    3    3    0.000019    0.000000
   -9   -4   -1    4    3   -0.000045   -0.000000
   -9   -4   -1    1    4   -0.000092   -0.000000
   -9   -4   -1    2    4   -0.000083    0.000000
   -9   -4   -1    3    4   -0.000116    0.000000
   -9   -4   -1    4    4    0.000016   -0.000000
   -9   -4    0    1    1   -0.000056   -0.000000
   -9   -4    0    2    1    0.000010    0.000000
   -9   -4    0    3    1    0.000064   -0.000000
   -9   -4    0    4    1   -0.000002    0.000000
   -9   -4    0    1    2    0.000085   -0.000000
   -9   -4    0    2    2   -0.000071    0.000000
   -9   -4    0    3    2   -0.000025   -0.000000
   -9   -4    0    4    2    0.000071    0.000000
   -9   -4    0    1    3    0.000012   -0.000000
   -9   -4    0    2    3    0.000018   -0.000000
   -9   -4    0    3    3   -0.000071   -0.000000
   -9   -4    0    4    3   -0.000075    0.000000
   -9   -4    0    1    4   -0.000092    0.000000
   -9   -4    0    2    4   -0.000083    0.000000
   -9   -4    0    3    4    0.000253   -0.000000
   -9   -4    0    4    4   -0.000056    0.000000
   -9   -4    1    1    1    0.000016   -0.000000
   -9   -4    1    2    1   -0.000012   -0.000000
   -9   -4    1    3    1    0.000064    0.000000
   -9   -4    1    4    1   -0.000002   -0.000000
   -9   -4    1    1    2    0.000080    0.000000
   -9   -4    1    2    2    0.000019   -0.000000
   -9   -4    1    3    2   -0.000025   -0.000000
   -9   -4    1    4    2    0.000071    0.000000
   -9   -4    1    1    3   -0.000093    0.000000
   -9   -4    1    2    3   -0.000050    0.000000
   -9   -4    1    3    3    0.000019    0.000000
   -9   -4    1    4    3   -0.000045   -0.000000
   -9   -4    1    1    4    0.000052    0.000000
   -9   -4    1    2    4    0.000045   -0.000000
   -9   -4    1    3    4   -0.000116   -0.000000
   -9   -4    1    4    4    0.000016   -0.000000
   -9   -3   -1    1    1    0.000081    0.000000
   -9   -3   -1    2    1   -0.000045   -0.000000
   -9   -3   -1    3    1   -0.000150   -0.000000
   -9   -3   -1    4    1    0.000063    0.000000
   -9   -3   -1    1    2   -0.000026    0.000000
   -9   -3   -1    2    2    0.000096   -0.000000
   -9   -3   -1    3    2   -0.000094    0.000000
   -9   -3   -1    4    2    0.000032   -0.000000
   -9   -3   -1    1    3   -0.000047   -0.000000
   -9   -3   -1    2    3    0.000138    0.000000
   -9   -3   -1    3    3    0.000096   -0.000000
   -9   -3   -1    4    3   -0.000091   -0.000000
   -9   -3   -1    1    4   -0.000076   -0.000000
   -9   -3   -1    2    4    0.000012    0.000000
   -9   -3   -1    3    4    0.000080    0.000000
   -9   -3   -1    4    4    0.000081    0.000000
   -9   -3    0    1    1   -0.000122   -0.000000
   -9   -3    0    2    1   -0.000075    0.000000
   -9   -3    0    3    1    0.000071   -0.000000
   -9   -3    0    4    1    0.000077    0.000000
   -9   -3    0    1    2    0.000269   -0.000000
   -9   -3    0    2    2   -0.000105    0.000000
   -9   -3    0    3    2   -0.000124   -0.000000
   -9   -3    0    4    2   -0.000031   -0.000000
   -9   -3    0    1    3   -0.000047   -0.000000
   -9   -3    0    2    3    0.000138   -0.000000
   -9   -3    0    3    3   -0.000105   -0.000000
   -9   -3    0    4    3   -0.000068    0.000000
   -9   -3    0    1    4   -0.000076    0.000000
   -9   -3    0    2    4    0.000012    0.000000
   -9   -3    0    3    4    0.000085   -0.000000
   -9   -3    0    4    4   -0.000122   -0.000000
   -9   -3    1    1    1    0.000081    0.000000
   -9   -3    1    2    1   -0.000045    0.000000
   -9   -3    1    3    1    0.000071   -0.000000
   -9   -3    1    4    1    0.000077   -0.000000
   -9   -3    1    1    2   -0.000026   -0.000000
   -9   -3    1    2    2    0.000096   -0.000000
   -9   -3    1    3    2   -0.000124    0.000000
   -9   -3    1    4    2   -0.000031    0.000000
   -9   -3    1    1    3    0.000030    0.000000
   -9   -3    1    2    3    0.000080    0.000000
   -9   -3    1    3    3    0.000096    0.000000
   -9   -3    1    4    3   -0.000091    0.000000
   -9   -3    1    1    4   -0.000069   -0.000000
   -9   -3    1    2    4   -0.000093   -0.000000
   -9   -3    1    3    4    0.000080   -0.000000
   -9   -3    1    4    4    0.000081   -0.000000
   -8   -6   -1    1    1   -0.000025    0.000000
   -8   -6   -1    2    1    0.000140    0.000000
   -8   -6   -1    3    1   -0.000007   -0.000000
   -8   -6   -1    4    1   -0.000056    0.000000
   -8   -6   -1    1    2    0.000011    0.000000
   -8   -6   -1    2    2   -0.000035   -0.000000
   -8   -6   -1    3    2    0.000083   -0.000000
   -8   -6   -1    4    2    0.000032   -0.000000
   -8   -6   -1    1    3    0.000020    0.000000
   -8   -6   -1    2    3    0.000018    0.000000
   -8   -6   -1    3    3   -0.000035   -0.000000
   -8   -6   -1    4    3   -0.000091   -0.000000
   -8   -6   -1    1    4    0.000100   -0.000000
   -8   -6   -1    2    4   -0.000022   -0.000000
   -8   -6   -1    3    4   -0.000027    0.000000
   -8   -6   -1    4    4   -0.000025   -0.000000
   -8   -6    0    1    1    0.000077   -0.000000
   -8   -6    0    2    1   -0.000012    0.000000
   -8   -6    0    3    1   -0.000046    0.000000
   -8   -6    0    4    1    0.000089    0.000000
   -8   -6    0    1    2   -0.000196   -0.000000
   -8   -6    0    2    2    0.000055    0.000000
   -8   -6    0    3    2   -0.000035   -0.000000
   -8   -6    0    4    2   -0.000031    0.000000
   -8   -6    0    1    3    0.000020    0.000000
   -8   -6    0    2    3    0.000018   -0.000000
   -8   -6    0    3    3    0.000055   -0.000000
   -8   -6    0    4    3   -0.000068    0.000000
   -8   -6    0    1    4    0.000100    0.000000
   -8   -6    0    2    4   -0.000022    0.000000
   -8   -6    0    3    4   -0.000031   -0.000000
   -8   -6    0    4    4    0.000077    0.000000
   -8   -6    1    1    1   -0.000025   -0.000000
   -8   -6    1    2    1    0.000140    0.000000
   -8   -6    1    3    1   -0.000046    0.000000
   -8   -6    1    4    1    0.000089   -0.000000
   -8   -6    1    1    2    0.000011   -0.000000
   -8   -6    1    2    2   -0.000035    0.000000
   -8   -6    1    3    2   -0.000035   -0.000000
   -8   -6    1    4    2   -0.000031   -0.000000
   -8   -6    1    1    3    0.000155   -0.000000
   -8   -6    1    2    3   -0.000073    0.000000
   -8   -6    1    3    3   -0.000035    0.000000
   -8   -6    1    4    3   -0.000091    0.000000
   -8   -6    1    1    4    0.000048   -0.000000
   -8   -6    1    2    4   -0.000076   -0.000000
   -8   -6    1    3    4   -0.000027   -0.000000
   -8   -6    1    4    4   -0.000025    0.000000
   -8   -5   -1    1    1   -0.000044    0.000000
   -8   -5   -1    2    1   -0.000091   -0.000000
   -8   -5   -1    3    1    0.000032   -0.000000
   -8   -5   -1    4    1    0.000063    0.000000
   -8   -5   -1    1    2    0.000009    0.000000
   -8   -5   -1    2    2   -0.000048   -0.000000
   -8   -5   -1    3    2   -0.000090    0.000000
   -8   -5   -1    4    2   -0.000010    0.000000
   -8   -5   -1    1    3   -0.000102   -0.000000
   -8   -5   -1    2    3   -0.000085    0.000000
   -8   -5   -1    3    3   -0.000048    0.000000
   -8   -5   -1    4    3    0.000095   -0.000000
   -8   -5   -1    1    4    0.000208   -0.000000
   -8   -5   -1    2    4    0.000020   -0.000000
   -8   -5   -1    3    4    0.000011    0.000000
   -8   -5   -1    4    4   -0.000044   -0.000000
   -8   -5    0    1    1    0.000155   -0.000000
   -8   -5    0    2    1   -0.000068    0.000000
   -8   -5    0    3    1   -0.000031   -0.000000
   -8   -5    0    4    1    0.000077    0.000000
   -8   -5    0    1    2   -0.000159   -0.000000
   -8   -5    0    2    2    0.000171    0.000000
   -8   -5    0    3    2    0.000047   -0.000000
   -8   -5    0    4    2   -0.000119   -0.000000
   -8   -5    0    1    3   -0.000102    0.000000
   -8   -5    0    2    3   -0.000085   -0.000000
   -8   -5    0    3    3    0.000171   -0.000000
   -8   -5    0    4    3    0.000048    0.000000
   -8   -5    0    1    4    0.000208    0.000000
   -8   -5    0    2    4    0.000020   -0.000000
   -8   -5    0    3    4   -0.000196   -0.000000
   -8   -5    0    4    4    0.000155    0.000000
   -8   -5    1    1    1   -0.000044   -0.000000
   -8   -5    1    2    1   -0.000091    0.000000
   -8   -5    1    3    1   -0.000031    0.000000
   -8   -5    1    4    1    0.000077   -0.000000
   -8   -5    1    1    2    0.000009   -0.000000
   -8   -5    1    2    2   -0.000048    0.000000
   -8   -5    1    3    2    0.000047    0.000000
   -8   -5    1    4    2   -0.000119    0.000000
   -8   -5    1    1    3   -0.000034   -0.000000
   -8   -5    1    2    3    0.000114    0.000000
   -8   -5    1    3    3   -0.000048   -0.000000
   -8   -5    1    4    3    0.000095    0.000000
   -8   -5    1    1    4   -0.000041    0.000000
   -8   -5    1    2    4    0.000155   -0.000000
   -8   -5    1    3    4    0.000011   -0.000000
   -8   -5    1    4    4   -0.000044    0.000000
   -8   -4   -1    1    1    0.000099   -0.000000
   -8   -4   -1    2    1    0.000095   -0.000000
   -8   -4   -1    3    1   -0.000010   -0.000000
   -8   -4   -1    4    1   -0.000194    0.000000
   -8   -4   -1    1    2    0.000009    0.000000
   -8   -4   -1    2    2    0.000052    0.000000
   -8   -4   -1    3    2    0.000112    0.000000
   -8   -4   -1    4    2   -0.000010   -0.000000
   -8   -4   -1    1    3   -0.000102   -0.000000
   -8   -4   -1    2    3   -0.000103    0.000000
   -8   -4   -1    3    3    0.000052    0.000000
   -8   -4   -1    4    3    0.000095   -0.000000
   -8   -4   -1    1    4    0.000074   -0.000000
   -8   -4   -1    2    4   -0.000102   -0.000000
   -8   -4   -1    3    4    0.000009    0.000000
   -8   -4   -1    4    4    0.000099   -0.000000
   -8   -4    0    1    1    0.000257   -0.000000
   -8   -4    0    2    1    0.000048    0.000000
   -8   -4    0    3    1   -0.000119   -0.000000
   -8   -4    0    4    1   -0.000033    0.000000
   -8   -4    0    1    2   -0.000159   -0.000000
   -8   -4    0    2    2    0.000198    0.000000
   -8   -4    0    3    2   -0.000034   -0.000000
   -8   -4    0    4    2   -0.000119   -0.000000
   -8   -4    0    1    3   -0.000102   -0.000000
   -8   -4    0    2    3   -0.000103   -0.000000
   -8   -4    0    3    3    0.000198   -0.000000
   -8   -4    0    4    3    0.000048    0.000000
   -8   -4    0    1    4    0.000074    0.000000
   -8   -4    0    2    4   -0.000102    0.000000
   -8   -4    0    3    4   -0.000159   -0.000000
   -8   -4    0    4    4    0.000257    0.000000
   -8   -4    1    1    1    0.000099    0.000000
   -8   -4    1    2    1    0.000095    0.000000
   -8   -4    1    3    1   -0.000119    0.000000
   -8   -4    1    4    1   -0.000033   -0.000000
   -8   -4    1    1    2    0.000009   -0.000000
   -8   -4    1    2    2    0.000052   -0.000000
   -8   -4    1    3    2   -0.000034    0.000000
   -8   -4    1    4    2   -0.000119    0.000000
   -8   -4    1    1    3   -0.000034    0.000000
   -8   -4    1    2    3   -0.000188   -0.000000
   -8   -4    1    3    3    0.000052    0.000000
   -8   -4    1    4    3    0.000095    0.000000
   -8   -4    1    1    4   -0.000016    0.000000
   -8   -4    1    2    4   -0.000034   -0.000000
   -8   -4    1    3    4    0.000009   -0.000000
   -8   -4    1    4    4    0.000099   -0.000000
   -8   -3   -1    1    1   -0.000044    0.000000
   -8   -3   -1    2    1    0.000095   -0.000000
   -8   -3   -1    3    1   -0.000010   -0.000000
   -8   -3   -1    4    1    0.000063    0.000000
   -8   -3   -1    1    2    0.000011    0.000000
   -8   -3   -1    2    2   -0.000048   -0.000000
   -8   -3   -1    3    2   -0.000090   -0.000000
   -8   -3   -1    4    2    0.000032   -0.000000
   -8   -3   -1    1    3    0.000020   -0.000000
   -8   -3   -1    2    3   -0.000085    0.000000
   -8   -3   -1    3    3   -0.000048   -0.000000
   -8   -3   -1    4    3   -0.000091   -0.000000
   -8   -3   -1    1    4    0.000208   -0.000000
   -8   -3   -1    2    4   -0.000102    0.000000
   -8   -3   -1    3    4    0.000009    0.000000
   -8   -3   -1    4    4   -0.000044   -0.000000
   -8   -3    0    1    1    0.000155   -0.000000
   -8   -3    0    2    1    0.000048    0.000000
   -8   -3    0    3    1   -0.000119    0.000000
   -8   -3    0    4    1    0.000077    0.000000
   -8   -3    0    1    2   -0.000196   -0.000000
   -8   -3    0    2    2    0.000171    0.000000
   -8   -3    0    3    2    0.000047   -0.000000
   -8   -3    0    4    2   -0.000031   -0.000000
   -8   -3    0    1    3    0.000020   -0.000000
   -8   -3    0    2    3   -0.000085   -0.000000
   -8   -3    0    3    3    0.000171   -0.000000
   -8   -3    0    4    3   -0.000068    0.000000
   -8   -3    0    1    4    0.000208    0.000000
   -8   -3    0    2    4   -0.000102    0.000000
   -8   -3    0    3    4   -0.000159   -0.000000
   -8   -3    0    4    4    0.000155    0.000000
   -8   -3    1    1    1   -0.000044    0.000000
   -8   -3    1    2    1    0.000095    0.000000
   -8   -3    1    3    1   -0.000119    0.000000
   -8   -3    1    4    1    0.000077   -0.000000
   -8   -3    1    1    2    0.000011   -0.000000
   -8   -3    1    2    2   -0.000048   -0.000000
   -8   -3    1    3    2    0.000047    0.000000
   -8   -3    1    4    2   -0.000031    0.000000
   -8   -3    1    1    3    0.000155    0.000000
   -8   -3    1    2    3    0.000114   -0.000000
   -8   -3    1    3    3   -0.000048    0.000000
   -8   -3    1    4    3   -0.000091    0.000000
   -8   -3    1    1    4   -0.000041    0.000000
   -8   -3    1    2    4   -0.000034   -0.000000
   -8   -3    1    3    4    0.000009   -0.000000
   -8   -3    1    4    4   -0.000044   -0.000000
   -8   -2   -1    1    1   -0.000025    0.000000
   -8   -2   -1    2    1   -0.000091   -0.000000
   -8   -2   -1    3    1    0.000032   -0.000000
   -8   -2   -1    4    1   -0.000056    0.000000
   -8   -2   -1    1    2   -0.000027    0.000000
   -8   -2   -1    2    2   -0.000035   -0.000000
   -8   -2   -1    3    2    0.000083    0.000000
   -8   -2   -1    4    2   -0.000007    0.000000
   -8   -2   -1    1    3   -0.000022   -0.000000
   -8   -2   -1    2    3    0.000018    0.000000
   -8   -2   -1    3    3   -0.000035   -0.000000
   -8   -2   -1    4    3    0.000140   -0.000000
   -8   -2   -1    1    4    0.000100   -0.000000
   -8   -2   -1    2    4    0.000020    0.000000
   -8   -2   -1    3    4    0.000011    0.000000
   -8   -2   -1    4    4   -0.000025    0.000000
   -8   -2    0    1    1    0.000077   -0.000000
   -8   -2    0    2    1   -0.000068   -0.000000
   -8   -2    0    3    1   -0.000031    0.000000
   -8   -2    0    4    1    0.000089    0.000000
   -8   -2    0    1    2   -0.000031    0.000000
   -8   -2    0    2    2    0.000055    0.000000
   -8   -2    0    3    2   -0.000035   -0.000000
   -8   -2    0    4    2   -0.000046   -0.000000
   -8   -2    0    1    3   -0.000022   -0.000000
   -8   -2    0    2    3    0.000018   -0.000000
   -8   -2    0    3    3    0.000055   -0.000000
   -8   -2    0    4    3   -0.000012    0.000000
   -8   -2    0    1    4    0.000100    0.000000
   -8   -2    0    2    4    0.000020    0.000000
   -8   -2    0    3    4   -0.000196   -0.000000
   -8   -2    0    4    4    0.000077   -0.000000
   -8   -2    1    1    1   -0.000025    0.000000
   -8   -2    1    2    1   -0.000091    0.000000
   -8   -2    1    3    1   -0.000031   -0.000000
   -8   -2    1    4    1    0.000089   -0.000000
   -8   -2    1    1    2   -0.000027   -0.000000
   -8   -2    1    2    2   -0.000035   -0.000000
   -8   -2    1    3    2   -0.000035    0.000000
   -8   -2    1    4    2   -0.000046    0.000000
   -8   -2    1    1    3   -0.000076    0.000000
   -8   -2    1    2    3   -0.000073    0.000000
   -8   -2    1    3    3   -0.000035    0.000000
   -8   -2    1    4    3    0.000140    0.000000
   -8   -2    1    1    4    0.000048   -0.000000
   -8   -2    1    2    4    0.000155   -0.000000
   -8   -2    1    3    4    0.000011   -0.000000
   -8   -2    1    4    4   -0.000025   -0.000000
   -8   -1   -1    1    1    0.000032    0.000000
   -8   -1   -1    2    1    0.000140   -0.000000
   -8   -1   -1    3    1   -0.000007    0.000000
   -8   -1   -1    4    1   -0.000097    0.000000
   -8   -1   -1    1    2    0.000008   -0.000000
   -8   -1   -1    2    2    0.000013   -0.000000
   -8   -1   -1    3    2   -0.000005   -0.000000
   -8   -1   -1    4    2   -0.000026    0.000000
   -8   -1   -1    1    3   -0.000002    0.000000
   -8   -1   -1    2    3   -0.000076    0.000000
   -8   -1   -1    3    3    0.000013   -0.000000
   -8   -1   -1    4    3   -0.000034   -0.000000
   -8   -1   -1    1    4    0.000079   -0.000000
   -8   -1   -1    2    4   -0.000022    0.000000
   -8   -1   -1    3    4   -0.000027    0.000000
   -8   -1   -1    4    4    0.000032    0.000000
   -8   -1    0    1    1    0.000056   -0.000000
   -8   -1    0    2    1   -0.000012   -0.000000
   -8   -1    0    3    1   -0.000046    0.000000
   -8   -1    0    4    1   -0.000118    0.000000
   -8   -1    0    1    2   -0.000131    0.000000
   -8   -1    0    2    2    0.000033    0.000000
   -8   -1    0    3    2    0.000035    0.000000
   -8   -1    0    4    2   -0.000002   -0.000000
   -8   -1    0    1    3   -0.000002   -0.000000
   -8   -1    0    2    3   -0.000076   -0.000000
   -8   -1    0    3    3    0.000033    0.000000
   -8   -1    0    4    3    0.000118   -0.000000
   -8   -1    0    1    4    0.000079    0.000000
   -8   -1    0    2    4   -0.000022    0.000000
   -8   -1    0    3    4   -0.000031    0.000000
   -8   -1    0    4    4    0.000056   -0.000000
   -8   -1    1    1    1    0.000032    0.000000
   -8   -1    1    2    1    0.000140    0.000000
   -8   -1    1    3    1   -0.000046   -0.000000
   -8   -1    1    4    1   -0.000118   -0.000000
   -8   -1    1    1    2    0.000008   -0.000000
   -8   -1    1    2    2    0.000013   -0.000000
   -8   -1    1    3    2    0.000035    0.000000
   -8   -1    1    4    2   -0.000002    0.000000
   -8   -1    1    1    3    0.000101   -0.000000
   -8   -1    1    2    3   -0.000026    0.000000
   -8   -1    1    3    3    0.000013    0.000000
   -8   -1    1    4    3   -0.000034    0.000000
   -8   -1    1    1    4   -0.000085   -0.000000
   -8   -1    1    2    4   -0.000076   -0.000000
   -8   -1    1    3    4   -0.000027   -0.000000
   -8   -1    1    4    4    0.000032   -0.000000
   -7   -8   -1    1    1    0.000032    0.000000
   -7   -8   -1    2    1   -0.000027   -0.000000
   -7   -8   -1    3    1   -0.000076   -0.000000
   -7   -8   -1    4    1   -0.000085    0.000000
   -7   -8   -1    1    2   -0.000034   -0.000000
   -7   -8   -1    2    2    0.000013   -0.000000
   -7   -8   -1    3    2   -0.000026    0.000000
   -7   -8   -1    4    2    0.000101    0.000000
   -7   -8   -1    1    3   -0.000002    0.000000
   -7   -8   -1    2    3    0.000035    0.000000
   -7   -8   -1    3    3    0.000013   -0.000000
   -7   -8   -1    4    3    0.000008    0.000000
   -7   -8   -1    1    4   -0.000118    0.000000
   -7   -8   -1    2    4   -0.000046    0.000000
   -7   -8   -1    3    4    0.000140   -0.000000
   -7   -8   -1    4    4    0.000032    0.000000
   -7   -8    0    1    1    0.000056   -0.000000
   -7   -8    0    2    1   -0.000031    0.000000
   -7   -8    0    3    1   -0.000022    0.000000
   -7   -8    0    4    1    0.000079   -0.000000
   -7   -8    0    1    2    0.000118   -0.000000
   -7   -8    0    2    2    0.000033   -0.000000
   -7   -8    0    3    2   -0.000076    0.000000
   -7   -8    0    4    2   -0.000002   -0.000000
   -7   -8    0    1    3   -0.000002   -0.000000
   -7   -8    0    2    3    0.000035   -0.000000
   -7   -8    0    3    3    0.000033    0.000000
   -7   -8    0    4    3   -0.000131    0.000000
   -7   -8    0    1    4   -0.000118    0.000000
   -7   -8    0    2    4   -0.000046   -0.000000
   -7   -8    0    3    4   -0.000012   -0.000000
   -7   -8    0    4    4    0.000056   -0.000000
   -7   -8    1    1    1    0.000032    0.000000
   -7   -8    1    2    1   -0.000027    0.000000
   -7   -8    1    3    1   -0.000022   -0.000000
   -7   -8    1    4    1    0.000079   -0.000000
   -7   -8    1    1    2   -0.000034   -0.000000
   -7   -8    1    2    2    0.000013    0.000000
   -7   -8    1    3    2   -0.000076   -0.000000
   -7   -8    1    4    2   -0.000002   -0.000000
   -7   -8    1    1    3   -0.000026    0.000000
   -7   -8    1    2    3   -0.000005    0.000000
   -7   -8    1    3    3    0.000013    0.000000
   -7   -8    1    4    3    0.000008    0.000000
   -7   -8    1    1    4   -0.000097   -0.000000
   -7   -8    1    2    4   -0.000007   -0.000000
   -7   -8    1    3    4    0.000140    0.000000
   -7   -8    1    4    4    0.000032    0.000000
   -7   -7   -1    1    1   -0.000085   -0.000000
   -7   -7   -1    2    1    0.000008   -0.000000
   -7   -7   -1    3    1    0.000101   -0.000000
   -7   -7   -1    4    1    0.000100    0.000000
   -7   -7   -1    1    2    0.000039   -0.000000
   -7   -7   -1    2    2   -0.000041    0.000000
   -7   -7   -1    3    2    0.000011    0.000000
   -7   -7   -1    4    2   -0.000026    0.000000
   -7   -7   -1    1    3   -0.000004    0.000000
   -7   -7   -1    2    3    0.000008    0.000000
   -7   -7   -1    3    3   -0.000041   -0.000000
   -7   -7   -1    4    3   -0.000034   -0.000000
   -7   -7   -1    1    4   -0.000054    0.000000
   -7   -7   -1    2    4   -0.000002   -0.000000
   -7   -7   -1    3    4   -0.000034   -0.000000
   -7   -7   -1    4    4   -0.000085    0.000000
   -7   -7    0    1    1   -0.000020   -0.000000
   -7   -7    0    2    1   -0.000131    0.000000
   -7   -7    0    3    1   -0.000002    0.000000
   -7   -7    0    4    1    0.000047   -0.000000
   -7   -7    0    1    2   -0.000031   -0.000000
   -7   -7    0    2    2    0.000061    0.000000
   -7   -7    0    3    2    0.000008    0.000000
   -7   -7    0    4    2   -0.000002   -0.000000
   -7   -7    0    1    3   -0.000004   -0.000000
   -7   -7    0    2    3    0.000008   -0.000000
   -7   -7    0    3    3    0.000061   -0.000000
   -7   -7    0    4    3    0.000118    0.000000
   -7   -7    0    1    4   -0.000054    0.000000
   -7   -7    0    2    4   -0.000002   -0.000000
   -7   -7    0    3    4    0.000118   -0.000000
   -7   -7    0    4    4   -0.000020    0.000000
   -7   -7    1    1    1   -0.000085    0.000000
   -7   -7    1    2    1    0.000008    0.000000
   -7   -7    1    3    1   -0.000002   -0.000000
   -7   -7    1    4    1    0.000047   -0.000000
   -7   -7    1    1    2    0.000039   -0.000000
   -7   -7    1    2    2   -0.000041   -0.000000
   -7   -7    1    3    2    0.000008   -0.000000
   -7   -7    1    4    2   -0.000002   -0.000000
   -7   -7    1    1    3    0.000008    0.000000
   -7   -7    1    2    3    0.000011    0.000000
   -7   -7    1    3    3   -0.000041    0.000000
   -7   -7    1    4    3   -0.000034    0.000000
   -7   -7    1    1    4    0.000088   -0.000000
   -7   -7    1    2    4   -0.000026    0.000000
   -7   -7    1    3    4   -0.000034    0.000000
   -7   -7    1    4    4   -0.000085    0.000000
   -7   -6   -1    1    1    0.000101   -0.000000
   -7   -6   -1    2    1   -0.000034    0.000000
   -7   -6   -1    3    1   -0.000026   -0.000000
   -7   -6   -1    4    1   -0.000097    0.000000
   -7   -6   -1    1    2   -0.000087    0.000000
   -7   -6   -1    2    2    0.000082   -0.000000
   -7   -6   -1    3    2   -0.000061    0.000000
   -7   -6   -1    4    2   -0.000004   -0.000000
   -7   -6   -1    1    3    0.000154    0.000000
   -7   -6   -1    2    3   -0.000051    0.000000
   -7   -6   -1    3    3    0.000082   -0.000000
   -7   -6   -1    4    3    0.000034   -0.000000
   -7   -6   -1    1    4   -0.000077   -0.000000
   -7   -6   -1    2    4   -0.000004   -0.000000
   -7   -6   -1    3    4    0.000039   -0.000000
   -7   -6   -1    4    4    0.000101    0.000000
   -7   -6    0    1    1   -0.000108   -0.000000
   -7   -6    0    2    1    0.000118    0.000000
   -7   -6    0    3    1   -0.000002    0.000000
   -7   -6    0    4    1   -0.000118    0.000000
   -7   -6    0    1    2   -0.000030   -0.000000
   -7   -6    0    2    2   -0.000155    0.000000
   -7   -6    0    3    2    0.000095    0.000000
   -7   -6    0    4    2    0.000079   -0.000000
   -7   -6    0    1    3    0.000154    0.000000
   -7   -6    0    2    3   -0.000051   -0.000000
   -7   -6    0    3    3   -0.000155   -0.000000
   -7   -6    0    4    3   -0.000003    0.000000
   -7   -6    0    1    4   -0.000077    0.000000
   -7   -6    0    2    4   -0.000004   -0.000000
   -7   -6    0    3    4   -0.000031   -0.000000
   -7   -6    0    4    4   -0.000108    0.000000
   -7   -6    1    1    1    0.000101   -0.000000
   -7   -6    1    2    1   -0.000034    0.000000
   -7   -6    1    3    1   -0.000002   -0.000000
   -7   -6    1    4    1   -0.000118    0.000000
   -7   -6    1    1    2   -0.000087   -0.000000
   -7   -6    1    2    2    0.000082    0.000000
   -7   -6    1    3    2    0.000095   -0.000000
   -7   -6    1    4    2    0.000079   -0.000000
   -7   -6    1    1    3   -0.000095   -0.000000
   -7   -6    1    2    3    0.000059    0.000000
   -7   -6    1    3    3    0.000082    0.000000
   -7   -6    1    4    3    0.000034    0.000000
   -7   -6    1    1    4   -0.000094   -0.000000
   -7   -6    1    2    4    0.000008   -0.000000
   -7   -6    1    3    4    0.000039    0.000000
   -7   -6    1    4    4    0.000101    0.000000
   -7   -5   -1    1    1   -0.000141   -0.000000
   -7   -5   -1    2    1    0.000034   -0.000000
   -7   -5   -1    3    1   -0.000004   -0.000000
   -7   -5   -1    4    1    0.000123    0.000000
   -7   -5   -1    1    2   -0.000134    0.000000
   -7   -5   -1    2    2   -0.000094   -0.000000
   -7   -5   -1    3    2    0.000093    0.000000
   -7   -5   -1    4    2    0.000091   -0.000000
   -7   -5   -1    1    3    0.000142    0.000000
   -7   -5   -1    2    3    0.000095    0.000000
   -7   -5   -1    3    3   -0.000094   -0.000000
   -7   -5   -1    4    3   -0.000073   -0.000000
   -7   -5   -1    1    4    0.000012   -0.000000
   -7   -5   -1    2    4    0.000154   -0.000000
   -7   -5   -1    3    4   -0.000087    0.000000
   -7   -5   -1    4    4   -0.000141    0.000000
   -7   -5    0    1    1   -0.000251   -0.000000
   -7   -5    0    2    1   -0.000003    0.000000
   -7   -5    0    3    1    0.000079    0.000000
   -7   -5    0    4    1    0.000013    0.000000
   -7   -5    0    1    2    0.000073   -0.000000
   -7   -5    0    2    2   -0.000171    0.000000
   -7   -5    0    3    2    0.000097   -0.000000
   -7   -5    0    4    2    0.000035   -0.000000
   -7   -5    0    1    3    0.000142    0.000000
   -7   -5    0    2    3    0.000095   -0.000000
   -7   -5    0    3    3   -0.000171   -0.000000
   -7   -5    0    4    3    0.000113   -0.000000
   -7   -5    0    1    4    0.000012    0.000000
   -7   -5    0    2    4    0.000154   -0.000000
   -7   -5    0    3    4   -0.000030   -0.000000
   -7   -5    0    4    4   -0.000251    0.000000
   -7   -5    1    1    1   -0.000141   -0.000000
   -7   -5    1    2    1    0.000034    0.000000
   -7   -5    1    3    1    0.000079    0.000000
   -7   -5    1    4    1    0.000013   -0.000000
   -7   -5    1    1    2   -0.000134   -0.000000
   -7   -5    1    2    2   -0.000094    0.000000
   -7   -5    1    3    2    0.000097    0.000000
   -7   -5    1    4    2    0.000035    0.000000
   -7   -5    1    1    3    0.000105   -0.000000
   -7   -5    1    2    3   -0.000016    0.000000
   -7   -5    1    3    3   -0.000094   -0.000000
   -7   -5    1    4    3   -0.000073    0.000000
   -7   -5    1    1    4    0.000263    0.000000
   -7   -5    1    2    4   -0.000095    0.000000
   -7   -5    1    3    4   -0.000087    0.000000
   -7   -5    1    4    4   -0.000141    0.000000
   -7   -4   -1    1    1    0.000042   -0.000000
   -7   -4   -1    2    1   -0.000073   -0.000000
   -7   -4   -1    3    1    0.000091   -0.000000
   -7   -4   -1    4    1   -0.000043    0.000000
   -7   -4   -1    1    2    0.000032    0.000000
   -7   -4   -1    2    2    0.000052    0.000000
   -7   -4   -1    3    2   -0.000030   -0.000000
   -7   -4   -1    4    2   -0.000133   -0.000000
   -7   -4   -1    1    3    0.000122    0.000000
   -7   -4   -1    2    3   -0.000025    0.000000
   -7   -4   -1    3    3    0.000052   -0.000000
   -7   -4   -1    4    3    0.000118   -0.000000
   -7   -4   -1    1    4   -0.000159   -0.000000
   -7   -4   -1    2    4    0.000142   -0.000000
   -7   -4   -1    3    4   -0.000134    0.000000
   -7   -4   -1    4    4    0.000042   -0.000000
   -7   -4    0    1    1   -0.000154   -0.000000
   -7   -4    0    2    1    0.000113    0.000000
   -7   -4    0    3    1    0.000035    0.000000
   -7   -4    0    4    1   -0.000203    0.000000
   -7   -4    0    1    2    0.000060   -0.000000
   -7   -4    0    2    2   -0.000171    0.000000
   -7   -4    0    3    2    0.000088   -0.000000
   -7   -4    0    4    2    0.000023   -0.000000
   -7   -4    0    1    3    0.000122   -0.000000
   -7   -4    0    2    3   -0.000025   -0.000000
   -7   -4    0    3    3   -0.000171   -0.000000
   -7   -4    0    4    3    0.000167    0.000000
   -7   -4    0    1    4   -0.000159    0.000000
   -7   -4    0    2    4    0.000142   -0.000000
   -7   -4    0    3    4    0.000073    0.000000
   -7   -4    0    4    4   -0.000154    0.000000
   -7   -4    1    1    1    0.000042    0.000000
   -7   -4    1    2    1   -0.000073    0.000000
   -7   -4    1    3    1    0.000035   -0.000000
   -7   -4    1    4    1   -0.000203   -0.000000
   -7   -4    1    1    2    0.000032   -0.000000
   -7   -4    1    2    2    0.000052   -0.000000
   -7   -4    1    3    2    0.000088    0.000000
   -7   -4    1    4    2    0.000023    0.000000
   -7   -4    1    1    3   -0.000177   -0.000000
   -7   -4    1    2    3    0.000038   -0.000000
   -7   -4    1    3    3    0.000052    0.000000
   -7   -4    1    4    3    0.000118    0.000000
   -7   -4    1    1    4    0.000027    0.000000
   -7   -4    1    2    4    0.000105    0.000000
   -7   -4    1    3    4   -0.000134   -0.000000
   -7   -4    1    4    4    0.000042   -0.000000
   -7   -3   -1    1    1    0.000042   -0.000000
   -7   -3   -1    2    1    0.000118   -0.000000
   -7   -3   -1    3    1   -0.000133   -0.000000
   -7   -3   -1    4    1   -0.000043    0.000000
   -7   -3   -1    1    2   -0.000134    0.000000
   -7   -3   -1    2    2    0.000052    0.000000
   -7   -3   -1    3    2   -0.000030   -0.000000
   -7   -3   -1    4    2    0.000091   -0.000000
   -7   -3   -1    1    3    0.000142    0.000000
   -7   -3   -1    2    3   -0.000025    0.000000
   -7   -3   -1    3    3    0.000052    0.000000
   -7   -3   -1    4    3   -0.000073   -0.000000
   -7   -3   -1    1    4   -0.000159   -0.000000
   -7   -3   -1    2    4    0.000122   -0.000000
   -7   -3   -1    3    4    0.000032    0.000000
   -7   -3   -1    4    4    0.000042   -0.000000
   -7   -3    0    1    1   -0.000154   -0.000000
   -7   -3    0    2    1    0.000167    0.000000
   -7   -3    0    3    1    0.000023    0.000000
   -7   -3    0    4    1   -0.000203    0.000000
   -7   -3    0    1    2    0.000073   -0.000000
   -7   -3    0    2    2   -0.000171    0.000000
   -7   -3    0    3    2    0.000088   -0.000000
   -7   -3    0    4    2    0.000035   -0.000000
   -7   -3    0    1    3    0.000142   -0.000000
   -7   -3    0    2    3   -0.000025   -0.000000
   -7   -3    0    3    3   -0.000171   -0.000000
   -7   -3    0    4    3    0.000113    0.000000
   -7   -3    0    1    4   -0.000159    0.000000
   -7   -3    0    2    4    0.000122    0.000000
   -7   -3    0    3    4    0.000060   -0.000000
   -7   -3    0    4    4   -0.000154   -0.000000
   -7   -3    1    1    1    0.000042    0.000000
   -7   -3    1    2    1    0.000118    0.000000
   -7   -3    1    3    1    0.000023   -0.000000
   -7   -3    1    4    1   -0.000203   -0.000000
   -7   -3    1    1    2   -0.000134   -0.000000
   -7   -3    1    2    2    0.000052   -0.000000
   -7   -3    1    3    2    0.000088    0.000000
   -7   -3    1    4    2    0.000035    0.000000
   -7   -3    1    1    3    0.000105    0.000000
   -7   -3    1    2    3    0.000038   -0.000000
   -7   -3    1    3    3    0.000052    0.000000
   -7   -3    1    4    3   -0.000073    0.000000
   -7   -3    1    1    4    0.000027    0.000000
   -7   -3    1    2    4   -0.000177    0.000000
   -7   -3    1    3    4    0.000032   -0.000000
   -7   -3    1    4    4    0.000042   -0.000000
   -7   -2   -1    1    1   -0.000141    0.000000
   -7   -2   -1    2    1   -0.000073   -0.000000
   -7   -2   -1    3    1    0.000091   -0.000000
   -7   -2   -1    4    1    0.000123    0.000000
   -7   -2   -1    1    2   -0.000087    0.000000
   -7   -2   -1    2    2   -0.000094   -0.000000
   -7   -2   -1    3    2    0.000093   -0.000000
   -7   -2   -1    4    2   -0.000004    0.000000
   -7   -2   -1    1    3    0.000154    0.000000
   -7   -2   -1    2    3    0.000095    0.000000
   -7   -2   -1    3    3   -0.000094   -0.000000
   -7   -2   -1    4    3    0.000034   -0.000000
   -7   -2   -1    1    4    0.000012   -0.000000
   -7   -2   -1    2    4    0.000142   -0.000000
   -7   -2   -1    3    4   -0.000134    0.000000
   -7   -2   -1    4    4   -0.000141    0.000000
   -7   -2    0    1    1   -0.000251   -0.000000
   -7   -2    0    2    1    0.000113    0.000000
   -7   -2    0    3    1    0.000035    0.000000
   -7   -2    0    4    1    0.000013    0.000000
   -7   -2    0    1    2   -0.000030   -0.000000
   -7   -2    0    2    2   -0.000171    0.000000
   -7   -2    0    3    2    0.000097   -0.000000
   -7   -2    0    4    2    0.000079   -0.000000
   -7   -2    0    1    3    0.000154   -0.000000
   -7   -2    0    2    3    0.000095   -0.000000
   -7   -2    0    3    3   -0.000171    0.000000
   -7   -2    0    4    3   -0.000003   -0.000000
   -7   -2    0    1    4    0.000012    0.000000
   -7   -2    0    2    4    0.000142    0.000000
   -7   -2    0    3    4    0.000073   -0.000000
   -7   -2    0    4    4   -0.000251   -0.000000
   -7   -2    1    1    1   -0.000141    0.000000
   -7   -2    1    2    1   -0.000073    0.000000
   -7   -2    1    3    1    0.000035   -0.000000
   -7   -2    1    4    1    0.000013   -0.000000
   -7   -2    1    1    2   -0.000087   -0.000000
   -7   -2    1    2    2   -0.000094   -0.000000
   -7   -2    1    3    2    0.000097    0.000000
   -7   -2    1    4    2    0.000079    0.000000
   -7   -2    1    1    3   -0.000095    0.000000
   -7   -2    1    2    3   -0.000016   -0.000000
   -7   -2    1    3    3   -0.000094    0.000000
   -7   -2    1    4    3    0.000034    0.000000
   -7   -2    1    1    4    0.000263   -0.000000
   -7   -2    1    2    4    0.000105   -0.000000
   -7   -2    1    3    4   -0.000134   -0.000000
   -7   -2    1    4    4   -0.000141   -0.000000
   -7   -1   -1    1    1    0.000101    0.000000
   -7   -1   -1    2    1    0.000034   -0.000000
   -7   -1   -1    3    1   -0.000004   -0.000000
   -7   -1   -1    4    1   -0.000097   -0.000000
   -7   -1   -1    1    2    0.000039   -0.000000
   -7   -1   -1    2    2    0.000082   -0.000000
   -7   -1   -1    3    2   -0.000061    0.000000
   -7   -1   -1    4    2   -0.000026    0.000000
   -7   -1   -1    1    3   -0.000004    0.000000
   -7   -1   -1    2    3   -0.000051    0.000000
   -7   -1   -1    3    3    0.000082   -0.000000
   -7   -1   -1    4    3   -0.000034   -0.000000
   -7   -1   -1    1    4   -0.000077   -0.000000
   -7   -1   -1    2    4    0.000154   -0.000000
   -7   -1   -1    3    4   -0.000087    0.000000
   -7   -1   -1    4    4    0.000101    0.000000
   -7   -1    0    1    1   -0.000108   -0.000000
   -7   -1    0    2    1   -0.000003   -0.000000
   -7   -1    0    3    1    0.000079    0.000000
   -7   -1    0    4    1   -0.000118    0.000000
   -7   -1    0    1    2   -0.000031    0.000000
   -7   -1    0    2    2   -0.000155    0.000000
   -7   -1    0    3    2    0.000095    0.000000
   -7   -1    0    4    2   -0.000002   -0.000000
   -7   -1    0    1    3   -0.000004   -0.000000
   -7   -1    0    2    3   -0.000051   -0.000000
   -7   -1    0    3    3   -0.000155   -0.000000
   -7   -1    0    4    3    0.000118   -0.000000
   -7   -1    0    1    4   -0.000077    0.000000
   -7   -1    0    2    4    0.000154    0.000000
   -7   -1    0    3    4   -0.000030    0.000000
   -7   -1    0    4    4   -0.000108    0.000000
   -7   -1    1    1    1    0.000101    0.000000
   -7   -1    1    2    1    0.000034    0.000000
   -7   -1    1    3    1    0.000079   -0.000000
   -7   -1    1    4    1   -0.000118   -0.000000
   -7   -1    1    1    2    0.000039   -0.000000
   -7   -1    1    2    2    0.000082   -0.000000
   -7   -1    1    3    2    0.000095    0.000000
   -7   -1    1    4    2   -0.000002    0.000000
   -7   -1    1    1    3    0.000008   -0.000000
   -7   -1    1    2    3    0.000059    0.000000
   -7   -1    1    3    3    0.000082    0.000000
   -7   -1    1    4    3   -0.000034   -0.000000
   -7   -1    1    1    4   -0.000094   -0.000000
   -7   -1    1    2    4   -0.000095   -0.000000
   -7   -1    1    3    4   -0.000087   -0.000000
   -7   -1    1    4    4    0.000101   -0.000000
   -7    0   -1    1    1   -0.000085    0.000000
   -7    0   -1    2    1   -0.000034   -0.000000
   -7    0   -1    3    1   -0.000026    0.000000
   -7    0   -1    4    1    0.000100   -0.000000
   -7    0   -1    1    2   -0.000034   -0.000000
   -7    0   -1    2    2   -0.000041   -0.000000
   -7    0   -1    3    2    0.000011   -0.000000
   -7    0   -1    4    2    0.000101   -0.000000
   -7    0   -1    1    3   -0.000002    0.000000
   -7    0   -1    2    3    0.000008    0.000000
   -7    0   -1    3    3   -0.000041   -0.000000
   -7    0   -1    4    3    0.000008   -0.000000
   -7    0   -1    1    4   -0.000054   -0.000000
   -7    0   -1    2    4   -0.000004   -0.000000
   -7    0   -1    3    4    0.000039    0.000000
   -7    0   -1    4    4   -0.000085    0.000000
   -7    0    0    1    1   -0.000020   -0.000000
   -7    0    0    2    1    0.000118   -0.000000
   -7    0    0    3    1   -0.000002    0.000000
   -7    0    0    4    1    0.000047   -0.000000
   -7    0    0    1    2    0.000118    0.000000
   -7    0    0    2    2    0.000061    0.000000
   -7    0    0    3    2    0.000008    0.000000
   -7    0    0    4    2   -0.000002   -0.000000
   -7    0    0    1    3   -0.000002   -0.000000
   -7    0    0    2    3    0.000008   -0.000000
   -7    0    0    3    3    0.000061   -0.000000
   -7    0    0    4    3   -0.000131   -0.000000
   -7    0    0    1    4   -0.000054    0.000000
   -7    0    0    2    4   -0.000004    0.000000
   -7    0    0    3    4   -0.000031    0.000000
   -7    0    0    4    4   -0.000020    0.000000
   -7    0    1    1    1   -0.000085    0.000000
   -7    0    1    2    1   -0.000034    0.000000
   -7    0    1    3    1   -0.000002   -0.000000
   -7    0    1    4    1    0.000047   -0.000000
   -7    0    1    1    2   -0.000034   -0.000000
   -7    0    1    2    2   -0.000041    0.000000
   -7    0    1    3    2    0.000008    0.000000
   -7    0    1    4    2   -0.000002    0.000000
   -7    0    1    1    3   -0.000026   -0.000000
   -7    0    1    2    3    0.000011    0.000000
   -7    0    1    3    3   -0.000041    0.000000
   -7    0    1    4    3    0.000008   -0.000000
   -7    0    1    1    4    0.000088    0.000000
   -7    0    1    2    4    0.000008   -0.000000
   -7    0    1    3    4    0.000039   -0.000000
   -7    0    1    4    4   -0.000085   -0.000000
   -7    1   -1    1    1    0.000032   -0.000000
   -7    1   -1    2    1    0.000008    0.000000
   -7    1   -1    3    1    0.000101    0.000000
   -7    1   -1    4    1   -0.000085    0.000000
   -7    1   -1    1    2    0.000140   -0.000000
   -7    1   -1    2    2    0.000013    0.000000
   -7    1   -1    3    2   -0.000026   -0.000000
   -7    1   -1    4    2   -0.000076    0.000000
   -7    1   -1    1    3   -0.000046    0.000000
   -7    1   -1    2    3    0.000035   -0.000000
   -7    1   -1    3    3    0.000013   -0.000000
   -7    1   -1    4    3   -0.000027    0.000000
   -7    1   -1    1    4   -0.000118    0.000000
   -7    1   -1    2    4   -0.000002   -0.000000
   -7    1   -1    3    4   -0.000034   -0.000000
   -7    1   -1    4    4    0.000032    0.000000
   -7    1    0    1    1    0.000056    0.000000
   -7    1    0    2    1   -0.000131   -0.000000
   -7    1    0    3    1   -0.000002    0.000000
   -7    1    0    4    1    0.000079   -0.000000
   -7    1    0    1    2   -0.000012    0.000000
   -7    1    0    2    2    0.000033   -0.000000
   -7    1    0    3    2   -0.000076    0.000000
   -7    1    0    4    2   -0.000022   -0.000000
   -7    1    0    1    3   -0.000046   -0.000000
   -7    1    0    2    3    0.000035   -0.000000
   -7    1    0    3    3    0.000033   -0.000000
   -7    1    0    4    3   -0.000031   -0.000000
   -7    1    0    1    4   -0.000118   -0.000000
   -7    1    0    2    4   -0.000002    0.000000
   -7    1    0    3    4    0.000118    0.000000
   -7    1    0    4    4    0.000056    0.000000
   -7    1    1    1    1    0.000032   -0.000000
   -7    1    1    2    1    0.000008    0.000000
   -7    1    1    3    1   -0.000002   -0.000000
   -7    1    1    4    1    0.000079    0.000000
   -7    1    1    1    2    0.000140    0.000000
   -7    1    1    2    2    0.000013    0.000000
   -7    1    1    3    2   -0.000076   -0.000000
   -7    1    1    4    2   -0.000022   -0.000000
   -7    1    1    1    3   -0.000007   -0.000000
   -7    1    1    2    3   -0.000005    0.000000
   -7    1    1    3    3    0.000013    0.000000
   -7    1    1    4    3   -0.000027   -0.000000
   -7    1    1    1    4   -0.000097   -0.000000
   -7    1    1    2    4   -0.000026   -0.000000
   -7    1    1    3    4   -0.000034    0.000000
   -7    1    1    4    4    0.000032   -0.000000
   -6   -9   -1    1    1    0.000081    0.000000
   -6   -9   -1    2    1    0.000080    0.000000
   -6   -9   -1    3    1   -0.000093    0.000000
   -6   -9   -1    4    1   -0.000069    0.000000
   -6   -9   -1    1    2   -0.000091   -0.000000
   -6   -9   -1    2    2    0.000096   -0.000000
   -6   -9   -1    3    2    0.000080   -0.000000
   -6   -9   -1    4    2    0.000030    0.000000
   -6   -9   -1    1    3   -0.000031   -0.000000
   -6   -9   -1    2    3   -0.000124   -0.000000
   -6   -9   -1    3    3    0.000096    0.000000
   -6   -9   -1    4    3   -0.000026    0.000000
   -6   -9   -1    1    4    0.000077    0.000000
   -6   -9   -1    2    4    0.000071    0.000000
   -6   -9   -1    3    4   -0.000045   -0.000000
   -6   -9   -1    4    4    0.000081   -0.000000
   -6   -9    0    1    1   -0.000122    0.000000
   -6   -9    0    2    1    0.000085    0.000000
   -6   -9    0    3    1    0.000012   -0.000000
   -6   -9    0    4    1   -0.000076   -0.000000
   -6   -9    0    1    2   -0.000068   -0.000000
   -6   -9    0    2    2   -0.000105   -0.000000
   -6   -9    0    3    2    0.000138    0.000000
   -6   -9    0    4    2   -0.000047    0.000000
   -6   -9    0    1    3   -0.000031   -0.000000
   -6   -9    0    2    3   -0.000124    0.000000
   -6   -9    0    3    3   -0.000105    0.000000
   -6   -9    0    4    3    0.000269    0.000000
   -6   -9    0    1    4    0.000077   -0.000000
   -6   -9    0    2    4    0.000071    0.000000
   -6   -9    0    3    4   -0.000075   -0.000000
   -6   -9    0    4    4   -0.000122   -0.000000
   -6   -9    1    1    1    0.000081   -0.000000
   -6   -9    1    2    1    0.000080   -0.000000
   -6   -9    1    3    1    0.000012    0.000000
   -6   -9    1    4    1   -0.000076    0.000000
   -6   -9    1    1    2   -0.000091   -0.000000
   -6   -9    1    2    2    0.000096    0.000000
   -6   -9    1    3    2    0.000138   -0.000000
   -6   -9    1    4    2   -0.000047    0.000000
   -6   -9    1    1    3    0.000032    0.000000
   -6   -9    1    2    3   -0.000094   -0.000000
   -6   -9    1    3    3    0.000096   -0.000000
   -6   -9    1    4    3   -0.000026   -0.000000
   -6   -9    1    1    4    0.000063   -0.000000
   -6   -9    1    2    4   -0.000150    0.000000
   -6   -9    1    3    4   -0.000045    0.000000
   -6   -9    1    4    4    0.000081    0.000000
   -6   -8   -1    1    1   -0.000025    0.000000
   -6   -8   -1    2    1   -0.000026    0.000000
   -6   -8   -1    3    1    0.000030   -0.000000
   -6   -8   -1    4    1    0.000140    0.000000
   -6   -8   -1    1    2    0.000034    0.000000
   -6   -8   -1    2    2   -0.000035   -0.000000
   -6   -8   -1    3    2   -0.000073   -0.000000
   -6   -8   -1    4    2   -0.000076    0.000000
   -6   -8   -1    1    3    0.000079   -0.000000
   -6   -8   -1    2    3   -0.000035   -0.000000
   -6   -8   -1    3    3   -0.000035   -0.000000
   -6   -8   -1    4    3   -0.000027    0.000000
   -6   -8   -1    1    4    0.000013    0.000000
   -6   -8   -1    2    4   -0.000031    0.000000
   -6   -8   -1    3    4   -0.000091   -0.000000
   -6   -8   -1    4    4   -0.000025   -0.000000
   -6   -8    0    1    1    0.000077   -0.000000
   -6   -8    0    2    1    0.000269    0.000000
   -6   -8    0    3    1   -0.000047    0.000000
   -6   -8    0    4    1   -0.000080   -0.000000
   -6   -8    0    1    2   -0.000003   -0.000000
   -6   -8    0    2    2    0.000055   -0.000000
   -6   -8    0    3    2    0.000018    0.000000
   -6   -8    0    4    2   -0.000022   -0.000000
   -6   -8    0    1    3    0.000079   -0.000000
   -6   -8    0    2    3   -0.000035    0.000000
   -6   -8    0    3    3    0.000055    0.000000
   -6   -8    0    4    3   -0.000031    0.000000
   -6   -8    0    1    4    0.000013   -0.000000
   -6   -8    0    2    4   -0.000031   -0.000000
   -6   -8    0    3    4   -0.000068   -0.000000
   -6   -8    0    4    4    0.000077   -0.000000
   -6   -8    1    1    1   -0.000025   -0.000000
   -6   -8    1    2    1   -0.000026    0.000000
   -6   -8    1    3    1   -0.000047   -0.000000
   -6   -8    1    4    1   -0.000080    0.000000
   -6   -8    1    1    2    0.000034   -0.000000
   -6   -8    1    2    2   -0.000035    0.000000
   -6   -8    1    3    2    0.000018   -0.000000
   -6   -8    1    4    2   -0.000022   -0.000000
   -6   -8    1    1    3   -0.000004    0.000000
   -6   -8    1    2    3    0.000083   -0.000000
   -6   -8    1    3    3   -0.000035   -0.000000
   -6   -8    1    4    3   -0.000027   -0.000000
   -6   -8    1    1    4    0.000123   -0.000000
   -6   -8    1    2    4    0.000032    0.000000
   -6   -8    1    3    4   -0.000091    0.000000
   -6   -8    1    4    4   -0.000025    0.000000
   -6   -7   -1    1    1    0.000101   -0.000000
   -6   -7   -1    2    1   -0.000027   -0.000000
   -6   -7   -1    3    1   -0.000076   -0.000000
   -6   -7   -1    4    1   -0.000085    0.000000
   -6   -7   -1    1    2   -0.000035    0.000000
   -6   -7   -1    2    2    0.000082    0.000000
   -6   -7   -1    3    2    0.000059    0.000000
   -6   -7   -1    4    2    0.000008    0.000000
   -6   -7   -1    1    3   -0.000038    0.000000
   -6   -7   -1    2    3    0.000095    0.000000
   -6   -7   -1    3    3    0.000082   -0.000000
   -6   -7   -1    4    3    0.000039   -0.000000
   -6   -7   -1    1    4    0.000076    0.000000
   -6   -7   -1    2    4    0.000079    0.000000
   -6   -7   -1    3    4    0.000034   -0.000000
   -6   -7   -1    4    4    0.000101    0.000000
   -6   -7    0    1    1   -0.000108   -0.000000
   -6   -7    0    2    1   -0.000031    0.000000
   -6   -7    0    3    1   -0.000022    0.000000
   -6   -7    0    4    1    0.000079    0.000000
   -6   -7    0    1    2    0.000091   -0.000000
   -6   -7    0    2    2   -0.000155    0.000000
   -6   -7    0    3    2   -0.000051   -0.000000
   -6   -7    0    4    2   -0.000004   -0.000000
   -6   -7    0    1    3   -0.000038   -0.000000
   -6   -7    0    2    3    0.000095   -0.000000
   -6   -7    0    3    3   -0.000155    0.000000
   -6   -7    0    4    3   -0.000031    0.000000
   -6   -7    0    1    4    0.000076    0.000000
   -6   -7    0    2    4    0.000079   -0.000000
   -6   -7    0    3    4   -0.000003    0.000000
   -6   -7    0    4    4   -0.000108   -0.000000
   -6   -7    1    1    1    0.000101    0.000000
   -6   -7    1    2    1   -0.000027    0.000000
   -6   -7    1    3    1   -0.000022   -0.000000
   -6   -7    1    4    1    0.000079   -0.000000
   -6   -7    1    1    2   -0.000035   -0.000000
   -6   -7    1    2    2    0.000082   -0.000000
   -6   -7    1    3    2   -0.000051   -0.000000
   -6   -7    1    4    2   -0.000004    0.000000
   -6   -7    1    1    3   -0.000037    0.000000
   -6   -7    1    2    3   -0.000061    0.000000
   -6   -7    1    3    3    0.000082    0.000000
   -6   -7    1    4    3    0.000039    0.000000
   -6   -7    1    1    4   -0.000076   -0.000000
   -6   -7    1    2    4   -0.000004    0.000000
   -6   -7    1    3    4    0.000034   -0.000000
   -6   -7    1    4    4    0.000101    0.000000
   -6   -6   -1    1    1   -0.000025   -0.000000
   -6   -6   -1    2    1    0.000039   -0.000000
   -6   -6   -1    3    1    0.000008   -0.000000
   -6   -6   -1    4    1    0.000088    0.000000
   -6   -6   -1    1    2    0.000163    0.000000
   -6   -6   -1    2    2   -0.000054    0.000000
   -6   -6   -1    3    2   -0.000018    0.000000
   -6   -6   -1    4    2   -0.000037   -0.000000
   -6   -6   -1    1    3   -0.000226    0.000000
   -6   -6   -1    2    3   -0.000084    0.000000
   -6   -6   -1    3    3   -0.000054   -0.000000
   -6   -6   -1    4    3   -0.000035   -0.000000
   -6   -6   -1    1    4   -0.000130   -0.000000
   -6   -6   -1    2    4   -0.000038    0.000000
   -6   -6   -1    3    4   -0.000035    0.000000
   -6   -6   -1    4    4   -0.000025    0.000000
   -6   -6    0    1    1    0.000259   -0.000000
   -6   -6    0    2    1   -0.000031    0.000000
   -6   -6    0    3    1   -0.000004    0.000000
   -6   -6    0    4    1   -0.000054    0.000000
   -6   -6    0    1    2    0.000093   -0.000000
   -6   -6    0    2    2    0.000201    0.000000
   -6   -6    0    3    2   -0.000084   -0.000000
   -6   -6    0    4    2   -0.000038   -0.000000
   -6   -6    0    1    3   -0.000226    0.000000
   -6   -6    0    2    3   -0.000084   -0.000000
   -6   -6    0    3    3    0.000201   -0.000000
   -6   -6    0    4    3    0.000091   -0.000000
   -6   -6    0    1    4   -0.000130    0.000000
   -6   -6    0    2    4   -0.000038   -0.000000
   -6   -6    0    3    4    0.000091   -0.000000
   -6   -6    0    4    4    0.000259    0.000000
   -6   -6    1    1    1   -0.000025    0.000000
   -6   -6    1    2    1    0.000039    0.000000
   -6   -6    1    3    1   -0.000004   -0.000000
   -6   -6    1    4    1   -0.000054   -0.000000
   -6   -6    1    1    2    0.000163   -0.000000
   -6   -6    1    2    2   -0.000054   -0.000000
   -6   -6    1    3    2   -0.000084    0.000000
   -6   -6    1    4    2   -0.000038    0.000000
   -6   -6    1    1    3    0.000080   -0.000000
   -6   -6    1    2    3   -0.000018    0.000000
   -6   -6    1    3    3   -0.000054    0.000000
   -6   -6    1    4    3   -0.000035    0.000000
   -6   -6    1    1    4    0.000004   -0.000000
   -6   -6    1    2    4   -0.000037    0.000000
   -6   -6    1    3    4   -0.000035   -0.000000
   -6   -6    1    4    4   -0.000025    0.000000
   -6   -5   -1    1    1    0.000019   -0.000000
   -6   -5   -1    2    1   -0.000035   -0.000000
   -6   -5   -1    3    1   -0.000037   -0.000000
   -6   -5   -1    4    1   -0.000076    0.000000
   -6   -5   -1    1    2    0.000054    0.000000
   -6   -5   -1    2    2    0.000011    0.000000
   -6   -5   -1    3    2   -0.000005    0.000000
   -6   -5   -1    4    2    0.000079   -0.000000
   -6   -5   -1    1    3    0.000044    0.000000
   -6   -5   -1    2    3    0.000043    0.000000
   -6   -5   -1    3    3    0.000011   -0.000000
   -6   -5   -1    4    3   -0.000028   -0.000000
   -6   -5   -1    1    4    0.000014   -0.000000
   -6   -5   -1    2    4   -0.000226   -0.000000
   -6   -5   -1    3    4    0.000163    0.000000
   -6   -5   -1    4    4    0.000019    0.000000
   -6   -5    0    1    1   -0.000062   -0.000000
   -6   -5    0    2    1    0.000091    0.000000
   -6   -5    0    3    1   -0.000038    0.000000
   -6   -5    0    4    1    0.000076    0.000000
   -6   -5    0    1    2    0.000056   -0.000000
   -6   -5    0    2    2   -0.000034    0.000000
   -6   -5    0    3    2   -0.000069   -0.000000
   -6   -5    0    4    2    0.000201   -0.000000
   -6   -5    0    1    3    0.000044    0.000000
   -6   -5    0    2    3    0.000043   -0.000000
   -6   -5    0    3    3   -0.000034   -0.000000
   -6   -5    0    4    3   -0.000383   -0.000000
   -6   -5    0    1    4    0.000014    0.000000
   -6   -5    0    2    4   -0.000226   -0.000000
   -6   -5    0    3    4    0.000093   -0.000000
   -6   -5    0    4    4   -0.000062    0.000000
   -6   -5    1    1    1    0.000019    0.000000
   -6   -5    1    2    1   -0.000035    0.000000
   -6   -5    1    3    1   -0.000038   -0.000000
   -6   -5    1    4    1    0.000076   -0.000000
   -6   -5    1    1    2    0.000054   -0.000000
   -6   -5    1    2    2    0.000011   -0.000000
   -6   -5    1    3    2   -0.000069    0.000000
   -6   -5    1    4    2    0.000201    0.000000
   -6   -5    1    1    3    0.000047   -0.000000
   -6   -5    1    2    3   -0.000006   -0.000000
   -6   -5    1    3    3    0.000011   -0.000000
   -6   -5    1    4    3   -0.000028    0.000000
   -6   -5    1    1    4   -0.000334   -0.000000
   -6   -5    1    2    4    0.000079    0.000000
   -6   -5    1    3    4    0.000163   -0.000000
   -6   -5    1    4    4    0.000019    0.000000
   -6   -4   -1    1    1   -0.000184   -0.000000
   -6   -4   -1    2    1   -0.000028   -0.000000
   -6   -4   -1    3    1    0.000079    0.000000
   -6   -4   -1    4    1    0.000066    0.000000
   -6   -4   -1    1    2    0.000259    0.000000
   -6   -4   -1    2    2   -0.000098    0.000000
   -6   -4   -1    3    2    0.000084   -0.000000
   -6   -4   -1    4    2    0.000026   -0.000000
   -6   -4   -1    1    3   -0.000168    0.000000
   -6   -4   -1    2    3    0.000262    0.000000
   -6   -4   -1    3    3   -0.000098   -0.000000
   -6   -4   -1    4    3   -0.000090   -0.000000
   -6   -4   -1    1    4    0.000014   -0.000000
   -6   -4   -1    2    4    0.000044   -0.000000
   -6   -4   -1    3    4    0.000054    0.000000
   -6   -4   -1    4    4   -0.000184    0.000000
   -6   -4    0    1    1   -0.000049   -0.000000
   -6   -4    0    2    1   -0.000383    0.000000
   -6   -4    0    3    1    0.000201    0.000000
   -6   -4    0    4    1    0.000276    0.000000
   -6   -4    0    1    2    0.000140   -0.000000
   -6   -4    0    2    2    0.000038    0.000000
   -6   -4    0    3    2   -0.000164   -0.000000
   -6   -4    0    4    2    0.000023   -0.000000
   -6   -4    0    1    3   -0.000168   -0.000000
   -6   -4    0    2    3    0.000262   -0.000000
   -6   -4    0    3    3    0.000038   -0.000000
   -6   -4    0    4    3   -0.000191   -0.000000
   -6   -4    0    1    4    0.000014    0.000000
   -6   -4    0    2    4    0.000044   -0.000000
   -6   -4    0    3    4    0.000056    0.000000
   -6   -4    0    4    4   -0.000049    0.000000
   -6   -4    1    1    1   -0.000184    0.000000
   -6   -4    1    2    1   -0.000028    0.000000
   -6   -4    1    3    1    0.000201   -0.000000
   -6   -4    1    4    1    0.000276   -0.000000
   -6   -4    1    1    2    0.000259   -0.000000
   -6   -4    1    2    2   -0.000098   -0.000000
   -6   -4    1    3    2   -0.000164    0.000000
   -6   -4    1    4    2    0.000023    0.000000
   -6   -4    1    1    3    0.000123   -0.000000
   -6   -4    1    2    3    0.000009   -0.000000
   -6   -4    1    3    3   -0.000098   -0.000000
   -6   -4    1    4    3   -0.000090    0.000000
   -6   -4    1    1    4   -0.000187    0.000000
   -6   -4    1    2    4    0.000047    0.000000
   -6   -4    1    3    4    0.000054   -0.000000
   -6   -4    1    4    4   -0.000184    0.000000
   -6   -3   -1    1    1    0.000040   -0.000000
   -6   -3   -1    2    1   -0.000090   -0.000000
   -6   -3   -1    3    1    0.000026   -0.000000
   -6   -3   -1    4    1   -0.000050    0.000000
   -6   -3   -1    1    2    0.000259    0.000000
   -6   -3   -1    2    2   -0.000049    0.000000
   -6   -3   -1    3    2   -0.000134   -0.000000
   -6   -3   -1    4    2    0.000026    0.000000
   -6   -3   -1    1    3   -0.000168    0.000000
   -6   -3   -1    2    3   -0.000039    0.000000
   -6   -3   -1    3    3   -0.000049   -0.000000
   -6   -3   -1    4    3   -0.000090   -0.000000
   -6   -3   -1    1    4   -0.000456   -0.000000
   -6   -3   -1    2    4   -0.000168   -0.000000
   -6   -3   -1    3    4    0.000259    0.000000
   -6   -3   -1    4    4    0.000040    0.000000
   -6   -3    0    1    1    0.000287    0.000000
   -6   -3    0    2    1   -0.000191    0.000000
   -6   -3    0    3    1    0.000023    0.000000
   -6   -3    0    4    1   -0.000036    0.000000
   -6   -3    0    1    2    0.000140    0.000000
   -6   -3    0    2    2    0.000236    0.000000
   -6   -3    0    3    2   -0.000254   -0.000000
   -6   -3    0    4    2    0.000023   -0.000000
   -6   -3    0    1    3   -0.000168   -0.000000
   -6   -3    0    2    3   -0.000039   -0.000000
   -6   -3    0    3    3    0.000236    0.000000
   -6   -3    0    4    3   -0.000191    0.000000
   -6   -3    0    1    4   -0.000456    0.000000
   -6   -3    0    2    4   -0.000168    0.000000
   -6   -3    0    3    4    0.000140    0.000000
   -6   -3    0    4    4    0.000287    0.000000
   -6   -3    1    1    1    0.000040    0.000000
   -6   -3    1    2    1   -0.000090    0.000000
   -6   -3    1    3    1    0.000023   -0.000000
   -6   -3    1    4    1   -0.000036   -0.000000
   -6   -3    1    1    2    0.000259   -0.000000
   -6   -3    1    2    2   -0.000049   -0.000000
   -6   -3    1    3    2   -0.000254    0.000000
   -6   -3    1    4    2    0.000023    0.000000
   -6   -3    1    1    3    0.000123    0.000000
   -6   -3    1    2    3    0.000077   -0.000000
   -6   -3    1    3    3   -0.000049    0.000000
   -6   -3    1    4    3   -0.000090    0.000000
   -6   -3    1    1    4   -0.000592    0.000000
   -6   -3    1    2    4    0.000123    0.000000
   -6   -3    1    3    4    0.000259   -0.000000
   -6   -3    1    4    4    0.000040   -0.000000
   -6   -2   -1    1    1   -0.000184   -0.000000
   -6   -2   -1    2    1   -0.000090   -0.000000
   -6   -2   -1    3    1    0.000026   -0.000000
   -6   -2   -1    4    1    0.000066    0.000000
   -6   -2   -1    1    2    0.000054    0.000000
   -6   -2   -1    2    2   -0.000098    0.000000
   -6   -2   -1    3    2    0.000084   -0.000000
   -6   -2   -1    4    2    0.000079    0.000000
   -6   -2   -1    1    3    0.000044    0.000000
   -6   -2   -1    2    3    0.000262    0.000000
   -6   -2   -1    3    3   -0.000098   -0.000000
   -6   -2   -1    4    3   -0.000028   -0.000000
   -6   -2   -1    1    4    0.000014   -0.000000
   -6   -2   -1    2    4   -0.000168   -0.000000
   -6   -2   -1    3    4    0.000259    0.000000
   -6   -2   -1    4    4   -0.000184    0.000000
   -6   -2    0    1    1   -0.000049   -0.000000
   -6   -2    0    2    1   -0.000191    0.000000
   -6   -2    0    3    1    0.000023    0.000000
   -6   -2    0    4    1    0.000276    0.000000
   -6   -2    0    1    2    0.000056    0.000000
   -6   -2    0    2    2    0.000038   -0.000000
   -6   -2    0    3    2   -0.000164   -0.000000
   -6   -2    0    4    2    0.000201   -0.000000
   -6   -2    0    1    3    0.000044   -0.000000
   -6   -2    0    2    3    0.000262   -0.000000
   -6   -2    0    3    3    0.000038    0.000000
   -6   -2    0    4    3   -0.000383   -0.000000
   -6   -2    0    1    4    0.000014    0.000000
   -6   -2    0    2    4   -0.000168    0.000000
   -6   -2    0    3    4    0.000140   -0.000000
   -6   -2    0    4    4   -0.000049   -0.000000
   -6   -2    1    1    1   -0.000184    0.000000
   -6   -2    1    2    1   -0.000090    0.000000
   -6   -2    1    3    1    0.000023   -0.000000
   -6   -2    1    4    1    0.000276   -0.000000
   -6   -2    1    1    2    0.000054   -0.000000
   -6   -2    1    2    2   -0.000098   -0.000000
   -6   -2    1    3    2   -0.000164    0.000000
   -6   -2    1    4    2    0.000201    0.000000
   -6   -2    1    1    3    0.000047    0.000000
   -6   -2    1    2    3    0.000009   -0.000000
   -6   -2    1    3    3   -0.000098    0.000000
   -6   -2    1    4    3   -0.000028    0.000000
   -6   -2    1    1    4   -0.000187    0.000000
   -6   -2    1    2    4    0.000123    0.000000
   -6   -2    1    3    4    0.000259   -0.000000
   -6   -2    1    4    4   -0.000184   -0.000000
   -6   -1   -1    1    1    0.000019    0.000000
   -6   -1   -1    2    1   -0.000028   -0.000000
   -6   -1   -1    3    1    0.000079   -0.000000
   -6   -1   -1    4    1   -0.000076    0.000000
   -6   -1   -1    1    2    0.000163    0.000000
   -6   -1   -1    2    2    0.000011   -0.000000
   -6   -1   -1    3    2   -0.000005    0.000000
   -6   -1   -1    4    2   -0.000037    0.000000
   -6   -1   -1    1    3   -0.000226    0.000000
   -6   -1   -1    2    3    0.000043    0.000000
   -6   -1   -1    3    3    0.000011   -0.000000
   -6   -1   -1    4    3   -0.000035   -0.000000
   -6   -1   -1    1    4    0.000014   -0.000000
   -6   -1   -1    2    4    0.000044   -0.000000
   -6   -1   -1    3    4    0.000054    0.000000
   -6   -1   -1    4    4    0.000019    0.000000
   -6   -1    0    1    1   -0.000062   -0.000000
   -6   -1    0    2    1   -0.000383   -0.000000
   -6   -1    0    3    1    0.000201    0.000000
   -6   -1    0    4    1    0.000076    0.000000
   -6   -1    0    1    2    0.000093   -0.000000
   -6   -1    0    2    2   -0.000034   -0.000000
   -6   -1    0    3    2   -0.000069    0.000000
   -6   -1    0    4    2   -0.000038   -0.000000
   -6   -1    0    1    3   -0.000226   -0.000000
   -6   -1    0    2    3    0.000043   -0.000000
   -6   -1    0    3    3   -0.000034    0.000000
   -6   -1    0    4    3    0.000091   -0.000000
   -6   -1    0    1    4    0.000014    0.000000
   -6   -1    0    2    4    0.000044    0.000000
   -6   -1    0    3    4    0.000056    0.000000
   -6   -1    0    4    4   -0.000062   -0.000000
   -6   -1    1    1    1    0.000019    0.000000
   -6   -1    1    2    1   -0.000028    0.000000
   -6   -1    1    3    1    0.000201   -0.000000
   -6   -1    1    4    1    0.000076   -0.000000
   -6   -1    1    1    2    0.000163   -0.000000
   -6   -1    1    2    2    0.000011   -0.000000
   -6   -1    1    3    2   -0.000069    0.000000
   -6   -1    1    4    2   -0.000038    0.000000
   -6   -1    1    1    3    0.000080   -0.000000
   -6   -1    1    2    3   -0.000006   -0.000000
   -6   -1    1    3    3    0.000011    0.000000
   -6   -1    1    4    3   -0.000035    0.000000
   -6   -1    1    1    4   -0.000334   -0.000000
   -6   -1    1    2    4    0.000047    0.000000
   -6   -1    1    3    4    0.000054   -0.000000
   -6   -1    1    4    4    0.000019   -0.000000
   -6    0   -1    1    1   -0.000025    0.000000
   -6    0   -1    2    1   -0.000035   -0.000000
   -6    0   -1    3    1   -0.000037   -0.000000
   -6    0   -1    4    1    0.000088   -0.000000
   -6    0   -1    1    2   -0.000035    0.000000
   -6    0   -1    2    2   -0.000054   -0.000000
   -6    0   -1    3    2   -0.000018    0.000000
   -6    0   -1    4    2    0.000008   -0.000000
   -6    0   -1    1    3   -0.000038    0.000000
   -6    0   -1    2    3   -0.000084    0.000000
   -6    0   -1    3    3   -0.000054   -0.000000
   -6    0   -1    4    3    0.000039    0.000000
   -6    0   -1    1    4   -0.000130   -0.000000
   -6    0   -1    2    4   -0.000226   -0.000000
   -6    0   -1    3    4    0.000163    0.000000
   -6    0   -1    4    4   -0.000025    0.000000
   -6    0    0    1    1    0.000258   -0.000000
   -6    0    0    2    1    0.000091    0.000000
   -6    0    0    3    1   -0.000038    0.000000
   -6    0    0    4    1   -0.000054   -0.000000
   -6    0    0    1    2    0.000091    0.000000
   -6    0    0    2    2    0.000201   -0.000000
   -6    0    0    3    2   -0.000084    0.000000
   -6    0    0    4    2   -0.000004   -0.000000
   -6    0    0    1    3   -0.000038   -0.000000
   -6    0    0    2    3   -0.000084   -0.000000
   -6    0    0    3    3    0.000201   -0.000000
   -6    0    0    4    3   -0.000031   -0.000000
   -6    0    0    1    4   -0.000130    0.000000
   -6    0    0    2    4   -0.000226    0.000000
   -6    0    0    3    4    0.000093    0.000000
   -6    0    0    4    4    0.000258    0.000000
   -6    0    1    1    1   -0.000025    0.000000
   -6    0    1    2    1   -0.000035    0.000000
   -6    0    1    3    1   -0.000038   -0.000000
   -6    0    1    4    1   -0.000054   -0.000000
   -6    0    1    1    2   -0.000035   -0.000000
   -6    0    1    2    2   -0.000054   -0.000000
   -6    0    1    3    2   -0.000084    0.000000
   -6    0    1    4    2   -0.000004    0.000000
   -6    0    1    1    3   -0.000037   -0.000000
   -6    0    1    2    3   -0.000018    0.000000
   -6    0    1    3    3   -0.000054    0.000000
   -6    0    1    4    3    0.000039   -0.000000
   -6    0    1    1    4    0.000004   -0.000000
   -6    0    1    2    4    0.000079    0.000000
   -6    0    1    3    4    0.000163   -0.000000
   -6    0    1    4    4   -0.000025   -0.000000
   -6    1   -1    1    1    0.000101   -0.000000
   -6    1   -1    2    1    0.000039    0.000000
   -6    1   -1    3    1    0.000008    0.000000
   -6    1   -1    4    1   -0.000085    0.000000
   -6    1   -1    1    2    0.000034   -0.000000
   -6    1   -1    2    2    0.000082    0.000000
   -6    1   -1    3    2    0.000059   -0.000000
   -6    1   -1    4    2   -0.000076   -0.000000
   -6    1   -1    1    3    0.000079    0.000000
   -6    1   -1    2    3    0.000095   -0.000000
   -6    1   -1    3    3    0.000082   -0.000000
   -6    1   -1    4    3   -0.000027    0.000000
   -6    1   -1    1    4    0.000076    0.000000
   -6    1   -1    2    4   -0.000038   -0.000000
   -6    1   -1    3    4   -0.000035   -0.000000
   -6    1   -1    4    4    0.000101    0.000000
   -6    1    0    1    1   -0.000108    0.000000
   -6    1    0    2    1   -0.000031    0.000000
   -6    1    0    3    1   -0.000004    0.000000
   -6    1    0    4    1    0.000079   -0.000000
   -6    1    0    1    2   -0.000003    0.000000
   -6    1    0    2    2   -0.000155   -0.000000
   -6    1    0    3    2   -0.000051    0.000000
   -6    1    0    4    2   -0.000022   -0.000000
   -6    1    0    1    3    0.000079   -0.000000
   -6    1    0    2    3    0.000095   -0.000000
   -6    1    0    3    3   -0.000155   -0.000000
   -6    1    0    4    3   -0.000031   -0.000000
   -6    1    0    1    4    0.000076    0.000000
   -6    1    0    2    4   -0.000038    0.000000
   -6    1    0    3    4    0.000091   -0.000000
   -6    1    0    4    4   -0.000108    0.000000
   -6    1    1    1    1    0.000101    0.000000
   -6    1    1    2    1    0.000039    0.000000
   -6    1    1    3    1   -0.000004   -0.000000
   -6    1    1    4    1    0.000079    0.000000
   -6    1    1    1    2    0.000034    0.000000
   -6    1    1    2    2    0.000082    0.000000
   -6    1    1    3    2   -0.000051   -0.000000
   -6    1    1    4    2   -0.000022   -0.000000
   -6    1    1    1    3   -0.000004   -0.000000
   -6    1    1    2    3   -0.000061    0.000000
   -6    1    1    3    3    0.000082    0.000000
   -6    1    1    4    3   -0.000027   -0.000000
   -6    1    1    1    4   -0.000076   -0.000000
   -6    1    1    2    4   -0.000037   -0.000000
   -6    1    1    3    4   -0.000035    0.000000
   -6    1    1    4    4    0.000101   -0.000000
   -6    2   -1    1    1   -0.000025   -0.000000
   -6    2   -1    2    1   -0.000027    0.000000
   -6    2   -1    3    1   -0.000076    0.000000
   -6    2   -1    4    1    0.000140    0.000000
   -6    2   -1    1    2   -0.000091   -0.000000
   -6    2   -1    2    2   -0.000035    0.000000
   -6    2   -1    3    2   -0.000073    0.000000
   -6    2   -1    4    2    0.000030   -0.000000
   -6    2   -1    1    3   -0.000031    0.000000
   -6    2   -1    2    3   -0.000035   -0.000000
   -6    2   -1    3    3   -0.000035   -0.000000
   -6    2   -1    4    3   -0.000026    0.000000
   -6    2   -1    1    4    0.000013    0.000000
   -6    2   -1    2    4    0.000079   -0.000000
   -6    2   -1    3    4    0.000034   -0.000000
   -6    2   -1    4    4   -0.000025    0.000000
   -6    2    0    1    1    0.000077    0.000000
   -6    2    0    2    1   -0.000031    0.000000
   -6    2    0    3    1   -0.000022    0.000000
   -6    2    0    4    1   -0.000080   -0.000000
   -6    2    0    1    2   -0.000068   -0.000000
   -6    2    0    2    2    0.000055   -0.000000
   -6    2    0    3    2    0.000018    0.000000
   -6    2    0    4    2   -0.000047   -0.000000
   -6    2    0    1    3   -0.000031   -0.000000
   -6    2    0    2    3   -0.000035    0.000000
   -6    2    0    3    3    0.000055   -0.000000
   -6    2    0    4    3    0.000269   -0.000000
   -6    2    0    1    4    0.000013   -0.000000
   -6    2    0    2    4    0.000079    0.000000
   -6    2    0    3    4   -0.000003   -0.000000
   -6    2    0    4    4    0.000077    0.000000
   -6    2    1    1    1   -0.000025   -0.000000
   -6    2    1    2    1   -0.000027   -0.000000
   -6    2    1    3    1   -0.000022    0.000000
   -6    2    1    4    1   -0.000080    0.000000
   -6    2    1    1    2   -0.000091    0.000000
   -6    2    1    2    2   -0.000035    0.000000
   -6    2    1    3    2    0.000018   -0.000000
   -6    2    1    4    2   -0.000047   -0.000000
   -6    2    1    1    3    0.000032    0.000000
   -6    2    1    2    3    0.000083    0.000000
   -6    2    1    3    3   -0.000035    0.000000
   -6    2    1    4    3   -0.000026   -0.000000
   -6    2    1    1    4    0.000123   -0.000000
   -6    2    1    2    4   -0.000004   -0.000000
   -6    2    1    3    4    0.000034    0.000000
   -6    2    1    4    4   -0.000025   -0.000000
   -6    3   -1    1    1    0.000081   -0.000000
   -6    3   -1    2    1   -0.000026    0.000000
   -6    3   -1    3    1    0.000030   -0.000000
   -6    3   -1    4    1   -0.000069    0.000000
   -6    3   -1    1    2   -0.000045   -0.000000
   -6    3   -1    2    2    0.000096    0.000000
   -6    3   -1    3    2    0.000080   -0.000000
   -6    3   -1    4    2   -0.000093    0.000000
   -6    3   -1    1    3    0.000071    0.000000
   -6    3   -1    2    3   -0.000124   -0.000000
   -6    3   -1    3    3    0.000096   -0.000000
   -6    3   -1    4    3    0.000080    0.000000
   -6    3   -1    1    4    0.000077    0.000000
   -6    3   -1    2    4   -0.000031   -0.000000
   -6    3   -1    3    4   -0.000091   -0.000000
   -6    3   -1    4    4    0.000081    0.000000
   -6    3    0    1    1   -0.000122    0.000000
   -6    3    0    2    1    0.000269    0.000000
   -6    3    0    3    1   -0.000047    0.000000
   -6    3    0    4    1   -0.000076   -0.000000
   -6    3    0    1    2   -0.000075   -0.000000
   -6    3    0    2    2   -0.000105   -0.000000
   -6    3    0    3    2    0.000138    0.000000
   -6    3    0    4    2    0.000012   -0.000000
   -6    3    0    1    3    0.000071    0.000000
   -6    3    0    2    3   -0.000124    0.000000
   -6    3    0    3    3   -0.000105    0.000000
   -6    3    0    4    3    0.000085    0.000000
   -6    3    0    1    4    0.000077   -0.000000
   -6    3    0    2    4   -0.000031    0.000000
   -6    3    0    3    4   -0.000068   -0.000000
   -6    3    0    4    4   -0.000122    0.000000
   -6    3    1    1    1    0.000081   -0.000000
   -6    3    1    2    1   -0.000026   -0.000000
   -6    3    1    3    1   -0.000047    0.000000
   -6    3    1    4    1   -0.000076    0.000000
   -6    3    1    1    2   -0.000045    0.000000
   -6    3    1    2    2    0.000096    0.000000
   -6    3    1    3    2    0.000138   -0.000000
   -6    3    1    4    2    0.000012   -0.000000
   -6    3    1    1    3   -0.000150    0.000000
[...]
    8    1    1    2    1    0.000008    0.000000
    8    1    1    3    1   -0.000002   -0.000000
    8    1    1    4    1    0.000079    0.000000
    8    1    1    1    2    0.000140    0.000000
    8    1    1    2    2    0.000013    0.000000
    8    1    1    3    2   -0.000076   -0.000000
    8    1    1    4    2   -0.000022   -0.000000
    8    1    1    1    3   -0.000007   -0.000000
    8    1    1    2    3   -0.000005    0.000000
    8    1    1    3    3    0.000013    0.000000
    8    1    1    4    3   -0.000027   -0.000000
    8    1    1    1    4   -0.000097   -0.000000
    8    1    1    2    4   -0.000026   -0.000000
    8    1    1    3    4   -0.000034    0.000000
    8    1    1    4    4    0.000032   -0.000000
    8    2   -1    1    1   -0.000025   -0.000000
    8    2   -1    2    1   -0.000027    0.000000
    8    2   -1    3    1   -0.000076   -0.000000
    8    2   -1    4    1    0.000048    0.000000
    8    2   -1    1    2   -0.000091   -0.000000
    8    2   -1    2    2   -0.000035    0.000000
    8    2   -1    3    2   -0.000073   -0.000000
    8    2   -1    4    2    0.000155    0.000000
    8    2   -1    1    3   -0.000031    0.000000
    8    2   -1    2    3   -0.000035   -0.000000
    8    2   -1    3    3   -0.000035   -0.000000
    8    2   -1    4    3    0.000011    0.000000
    8    2   -1    1    4    0.000089    0.000000
    8    2   -1    2    4   -0.000046   -0.000000
    8    2   -1    3    4    0.000140   -0.000000
    8    2   -1    4    4   -0.000025    0.000000
    8    2    0    1    1    0.000077    0.000000
    8    2    0    2    1   -0.000031   -0.000000
    8    2    0    3    1   -0.000022    0.000000
    8    2    0    4    1    0.000100   -0.000000
    8    2    0    1    2   -0.000068    0.000000
    8    2    0    2    2    0.000055   -0.000000
    8    2    0    3    2    0.000018    0.000000
    8    2    0    4    2    0.000020   -0.000000
    8    2    0    1    3   -0.000031   -0.000000
    8    2    0    2    3   -0.000035    0.000000
    8    2    0    3    3    0.000055    0.000000
    8    2    0    4    3   -0.000196    0.000000
    8    2    0    1    4    0.000089   -0.000000
    8    2    0    2    4   -0.000046    0.000000
    8    2    0    3    4   -0.000012   -0.000000
    8    2    0    4    4    0.000077    0.000000
    8    2    1    1    1   -0.000025   -0.000000
    8    2    1    2    1   -0.000027   -0.000000
    8    2    1    3    1   -0.000022    0.000000
    8    2    1    4    1    0.000100    0.000000
    8    2    1    1    2   -0.000091    0.000000
    8    2    1    2    2   -0.000035    0.000000
    8    2    1    3    2    0.000018   -0.000000
    8    2    1    4    2    0.000020   -0.000000
    8    2    1    1    3    0.000032    0.000000
    8    2    1    2    3    0.000083   -0.000000
    8    2    1    3    3   -0.000035    0.000000
    8    2    1    4    3    0.000011   -0.000000
    8    2    1    1    4   -0.000056   -0.000000
    8    2    1    2    4   -0.000007   -0.000000
    8    2    1    3    4    0.000140    0.000000
    8    2    1    4    4   -0.000025   -0.000000
    8    3   -1    1    1   -0.000044   -0.000000
    8    3   -1    2    1    0.000011    0.000000
    8    3   -1    3    1    0.000155   -0.000000
    8    3   -1    4    1   -0.000041   -0.000000
    8    3   -1    1    2    0.000095   -0.000000
    8    3   -1    2    2   -0.000048    0.000000
    8    3   -1    3    2    0.000114    0.000000
    8    3   -1    4    2   -0.000034    0.000000
    8    3   -1    1    3   -0.000119   -0.000000
    8    3   -1    2    3    0.000047   -0.000000
    8    3   -1    3    3   -0.000048   -0.000000
    8    3   -1    4    3    0.000009    0.000000
    8    3   -1    1    4    0.000077    0.000000
    8    3   -1    2    4   -0.000031   -0.000000
    8    3   -1    3    4   -0.000091   -0.000000
    8    3   -1    4    4   -0.000044    0.000000
    8    3    0    1    1    0.000155    0.000000
    8    3    0    2    1   -0.000196    0.000000
    8    3    0    3    1    0.000020    0.000000
    8    3    0    4    1    0.000208   -0.000000
    8    3    0    1    2    0.000048   -0.000000
    8    3    0    2    2    0.000171   -0.000000
    8    3    0    3    2   -0.000085    0.000000
    8    3    0    4    2   -0.000102   -0.000000
    8    3    0    1    3   -0.000119   -0.000000
    8    3    0    2    3    0.000047    0.000000
    8    3    0    3    3    0.000171    0.000000
    8    3    0    4    3   -0.000159    0.000000
    8    3    0    1    4    0.000077   -0.000000
    8    3    0    2    4   -0.000031    0.000000
    8    3    0    3    4   -0.000068   -0.000000
    8    3    0    4    4    0.000155   -0.000000
    8    3    1    1    1   -0.000044   -0.000000
    8    3    1    2    1    0.000011   -0.000000
    8    3    1    3    1    0.000020    0.000000
    8    3    1    4    1    0.000208    0.000000
    8    3    1    1    2    0.000095    0.000000
    8    3    1    2    2   -0.000048    0.000000
    8    3    1    3    2   -0.000085   -0.000000
    8    3    1    4    2   -0.000102   -0.000000
    8    3    1    1    3   -0.000010    0.000000
    8    3    1    2    3   -0.000090    0.000000
    8    3    1    3    3   -0.000048    0.000000
    8    3    1    4    3    0.000009   -0.000000
    8    3    1    1    4    0.000063   -0.000000
    8    3    1    2    4    0.000032    0.000000
    8    3    1    3    4   -0.000091    0.000000
    8    3    1    4    4   -0.000044    0.000000
    8    4   -1    1    1    0.000099   -0.000000
    8    4   -1    2    1    0.000009    0.000000
    8    4   -1    3    1   -0.000034   -0.000000
    8    4   -1    4    1   -0.000016   -0.000000
    8    4   -1    1    2    0.000095   -0.000000
    8    4   -1    2    2    0.000052    0.000000
    8    4   -1    3    2   -0.000188    0.000000
    8    4   -1    4    2   -0.000034    0.000000
    8    4   -1    1    3   -0.000119   -0.000000
    8    4   -1    2    3   -0.000034   -0.000000
    8    4   -1    3    3    0.000052   -0.000000
    8    4   -1    4    3    0.000009    0.000000
    8    4   -1    1    4   -0.000033    0.000000
    8    4   -1    2    4   -0.000119   -0.000000
    8    4   -1    3    4    0.000095   -0.000000
    8    4   -1    4    4    0.000099    0.000000
    8    4    0    1    1    0.000257    0.000000
    8    4    0    2    1   -0.000159    0.000000
    8    4    0    3    1   -0.000102    0.000000
    8    4    0    4    1    0.000074   -0.000000
    8    4    0    1    2    0.000048   -0.000000
    8    4    0    2    2    0.000198   -0.000000
    8    4    0    3    2   -0.000103    0.000000
    8    4    0    4    2   -0.000102   -0.000000
    8    4    0    1    3   -0.000119    0.000000
    8    4    0    2    3   -0.000034    0.000000
    8    4    0    3    3    0.000198    0.000000
    8    4    0    4    3   -0.000159    0.000000
    8    4    0    1    4   -0.000033   -0.000000
    8    4    0    2    4   -0.000119    0.000000
    8    4    0    3    4    0.000048   -0.000000
    8    4    0    4    4    0.000257   -0.000000
    8    4    1    1    1    0.000099    0.000000
    8    4    1    2    1    0.000009   -0.000000
    8    4    1    3    1   -0.000102    0.000000
    8    4    1    4    1    0.000074    0.000000
    8    4    1    1    2    0.000095    0.000000
    8    4    1    2    2    0.000052   -0.000000
    8    4    1    3    2   -0.000103   -0.000000
    8    4    1    4    2   -0.000102    0.000000
    8    4    1    1    3   -0.000010    0.000000
    8    4    1    2    3    0.000112   -0.000000
    8    4    1    3    3    0.000052   -0.000000
    8    4    1    4    3    0.000009   -0.000000
    8    4    1    1    4   -0.000194   -0.000000
    8    4    1    2    4   -0.000010    0.000000
    8    4    1    3    4    0.000095    0.000000
    8    4    1    4    4    0.000099    0.000000
    8    5   -1    1    1   -0.000044    0.000000
    8    5   -1    2    1    0.000009    0.000000
    8    5   -1    3    1   -0.000034    0.000000
    8    5   -1    4    1   -0.000041   -0.000000
    8    5   -1    1    2   -0.000091   -0.000000
    8    5   -1    2    2   -0.000048   -0.000000
    8    5   -1    3    2    0.000114   -0.000000
    8    5   -1    4    2    0.000155    0.000000
    8    5   -1    1    3   -0.000031   -0.000000
    8    5   -1    2    3    0.000047   -0.000000
    8    5   -1    3    3   -0.000048    0.000000
    8    5   -1    4    3    0.000011    0.000000
    8    5   -1    1    4    0.000077    0.000000
    8    5   -1    2    4   -0.000119   -0.000000
    8    5   -1    3    4    0.000095   -0.000000
    8    5   -1    4    4   -0.000044   -0.000000
    8    5    0    1    1    0.000155    0.000000
    8    5    0    2    1   -0.000159    0.000000
    8    5    0    3    1   -0.000102   -0.000000
    8    5    0    4    1    0.000208   -0.000000
    8    5    0    1    2   -0.000068   -0.000000
    8    5    0    2    2    0.000171   -0.000000
    8    5    0    3    2   -0.000085    0.000000
    8    5    0    4    2    0.000020    0.000000
    8    5    0    1    3   -0.000031    0.000000
    8    5    0    2    3    0.000047    0.000000
    8    5    0    3    3    0.000171    0.000000
    8    5    0    4    3   -0.000196    0.000000
    8    5    0    1    4    0.000077   -0.000000
    8    5    0    2    4   -0.000119    0.000000
    8    5    0    3    4    0.000048   -0.000000
    8    5    0    4    4    0.000155   -0.000000
    8    5    1    1    1   -0.000044   -0.000000
    8    5    1    2    1    0.000009   -0.000000
    8    5    1    3    1   -0.000102    0.000000
    8    5    1    4    1    0.000208    0.000000
    8    5    1    1    2   -0.000091    0.000000
    8    5    1    2    2   -0.000048    0.000000
    8    5    1    3    2   -0.000085   -0.000000
    8    5    1    4    2    0.000020    0.000000
    8    5    1    1    3    0.000032    0.000000
    8    5    1    2    3   -0.000090   -0.000000
    8    5    1    3    3   -0.000048   -0.000000
    8    5    1    4    3    0.000011   -0.000000
    8    5    1    1    4    0.000063   -0.000000
    8    5    1    2    4   -0.000010   -0.000000
    8    5    1    3    4    0.000095    0.000000
    8    5    1    4    4   -0.000044    0.000000
    8    6   -1    1    1   -0.000025    0.000000
    8    6   -1    2    1    0.000011    0.000000
    8    6   -1    3    1    0.000155    0.000000
    8    6   -1    4    1    0.000048    0.000000
    8    6   -1    1    2    0.000140   -0.000000
    8    6   -1    2    2   -0.000035   -0.000000
    8    6   -1    3    2   -0.000073   -0.000000
    8    6   -1    4    2   -0.000076    0.000000
    8    6   -1    1    3   -0.000046   -0.000000
    8    6   -1    2    3   -0.000035    0.000000
    8    6   -1    3    3   -0.000035   -0.000000
    8    6   -1    4    3   -0.000027    0.000000
    8    6   -1    1    4    0.000089    0.000000
    8    6   -1    2    4   -0.000031    0.000000
    8    6   -1    3    4   -0.000091   -0.000000
    8    6   -1    4    4   -0.000025   -0.000000
    8    6    0    1    1    0.000077    0.000000
    8    6    0    2    1   -0.000196    0.000000
    8    6    0    3    1    0.000020   -0.000000
    8    6    0    4    1    0.000100   -0.000000
    8    6    0    1    2   -0.000012   -0.000000
    8    6    0    2    2    0.000055   -0.000000
    8    6    0    3    2    0.000018    0.000000
    8    6    0    4    2   -0.000022   -0.000000
    8    6    0    1    3   -0.000046   -0.000000
    8    6    0    2    3   -0.000035    0.000000
    8    6    0    3    3    0.000055    0.000000
    8    6    0    4    3   -0.000031    0.000000
    8    6    0    1    4    0.000089   -0.000000
    8    6    0    2    4   -0.000031   -0.000000
    8    6    0    3    4   -0.000068   -0.000000
    8    6    0    4    4    0.000077   -0.000000
    8    6    1    1    1   -0.000025   -0.000000
    8    6    1    2    1    0.000011   -0.000000
    8    6    1    3    1    0.000020   -0.000000
    8    6    1    4    1    0.000100    0.000000
    8    6    1    1    2    0.000140   -0.000000
    8    6    1    2    2   -0.000035    0.000000
    8    6    1    3    2    0.000018   -0.000000
    8    6    1    4    2   -0.000022    0.000000
    8    6    1    1    3   -0.000007    0.000000
    8    6    1    2    3    0.000083    0.000000
    8    6    1    3    3   -0.000035    0.000000
    8    6    1    4    3   -0.000027   -0.000000
    8    6    1    1    4   -0.000056   -0.000000
    8    6    1    2    4    0.000032    0.000000
    8    6    1    3    4   -0.000091    0.000000
    8    6    1    4    4   -0.000025    0.000000
    9    3   -1    1    1    0.000081   -0.000000
    9    3   -1    2    1   -0.000026    0.000000
    9    3   -1    3    1    0.000030   -0.000000
    9    3   -1    4    1   -0.000069    0.000000
    9    3   -1    1    2   -0.000045   -0.000000
    9    3   -1    2    2    0.000096    0.000000
    9    3   -1    3    2    0.000080   -0.000000
    9    3   -1    4    2   -0.000093    0.000000
    9    3   -1    1    3    0.000071    0.000000
    9    3   -1    2    3   -0.000124   -0.000000
    9    3   -1    3    3    0.000096   -0.000000
    9    3   -1    4    3    0.000080    0.000000
    9    3   -1    1    4    0.000077    0.000000
    9    3   -1    2    4   -0.000031   -0.000000
    9    3   -1    3    4   -0.000091   -0.000000
    9    3   -1    4    4    0.000081    0.000000
    9    3    0    1    1   -0.000122    0.000000
    9    3    0    2    1    0.000269    0.000000
    9    3    0    3    1   -0.000047    0.000000
    9    3    0    4    1   -0.000076   -0.000000
    9    3    0    1    2   -0.000075   -0.000000
    9    3    0    2    2   -0.000105   -0.000000
    9    3    0    3    2    0.000138    0.000000
    9    3    0    4    2    0.000012   -0.000000
    9    3    0    1    3    0.000071    0.000000
    9    3    0    2    3   -0.000124    0.000000
    9    3    0    3    3   -0.000105    0.000000
    9    3    0    4    3    0.000085    0.000000
    9    3    0    1    4    0.000077   -0.000000
    9    3    0    2    4   -0.000031    0.000000
    9    3    0    3    4   -0.000068   -0.000000
    9    3    0    4    4   -0.000122    0.000000
    9    3    1    1    1    0.000081   -0.000000
    9    3    1    2    1   -0.000026   -0.000000
    9    3    1    3    1   -0.000047    0.000000
    9    3    1    4    1   -0.000076    0.000000
    9    3    1    1    2   -0.000045    0.000000
    9    3    1    2    2    0.000096    0.000000
    9    3    1    3    2    0.000138   -0.000000
    9    3    1    4    2    0.000012   -0.000000
    9    3    1    1    3   -0.000150    0.000000
    9    3    1    2    3   -0.000094   -0.000000
    9    3    1    3    3    0.000096    0.000000
    9    3    1    4    3    0.000080   -0.000000
    9    3    1    1    4    0.000063   -0.000000
    9    3    1    2    4    0.000032    0.000000
    9    3    1    3    4   -0.000091    0.000000
    9    3    1    4    4    0.000081   -0.000000
    9    4   -1    1    1    0.000016    0.000000
    9    4   -1    2    1    0.000080   -0.000000
    9    4   -1    3    1   -0.000093   -0.000000
    9    4   -1    4    1    0.000052   -0.000000
    9    4   -1    1    2   -0.000012    0.000000
    9    4   -1    2    2    0.000019    0.000000
    9    4   -1    3    2   -0.000050   -0.000000
    9    4   -1    4    2    0.000045    0.000000
    9    4   -1    1    3    0.000064   -0.000000
    9    4   -1    2    3   -0.000025    0.000000
    9    4   -1    3    3    0.000019   -0.000000
    9    4   -1    4    3   -0.000116    0.000000
    9    4   -1    1    4   -0.000002    0.000000
    9    4   -1    2    4    0.000071   -0.000000
    9    4   -1    3    4   -0.000045    0.000000
    9    4   -1    4    4    0.000016    0.000000
    9    4    0    1    1   -0.000056    0.000000
    9    4    0    2    1    0.000085    0.000000
    9    4    0    3    1    0.000012    0.000000
    9    4    0    4    1   -0.000092   -0.000000
    9    4    0    1    2    0.000010   -0.000000
    9    4    0    2    2   -0.000071   -0.000000
    9    4    0    3    2    0.000018    0.000000
    9    4    0    4    2   -0.000083   -0.000000
    9    4    0    1    3    0.000064    0.000000
    9    4    0    2    3   -0.000025    0.000000
    9    4    0    3    3   -0.000071    0.000000
    9    4    0    4    3    0.000253    0.000000
    9    4    0    1    4   -0.000002   -0.000000
    9    4    0    2    4    0.000071   -0.000000
    9    4    0    3    4   -0.000075   -0.000000
    9    4    0    4    4   -0.000056   -0.000000
    9    4    1    1    1    0.000016   -0.000000
    9    4    1    2    1    0.000080   -0.000000
    9    4    1    3    1    0.000012    0.000000
    9    4    1    4    1   -0.000092    0.000000
    9    4    1    1    2   -0.000012    0.000000
    9    4    1    2    2    0.000019    0.000000
    9    4    1    3    2    0.000018   -0.000000
    9    4    1    4    2   -0.000083   -0.000000
    9    4    1    1    3    0.000094    0.000000
    9    4    1    2    3    0.000043   -0.000000
    9    4    1    3    3    0.000019   -0.000000
    9    4    1    4    3   -0.000116   -0.000000
    9    4    1    1    4    0.000063   -0.000000
    9    4    1    2    4   -0.000150    0.000000
    9    4    1    3    4   -0.000045    0.000000
    9    4    1    4    4    0.000016    0.000000
    9    5   -1    1    1    0.000016    0.000000
    9    5   -1    2    1   -0.000116   -0.000000
    9    5   -1    3    1    0.000045   -0.000000
    9    5   -1    4    1    0.000053    0.000000
    9    5   -1    1    2   -0.000045   -0.000000
    9    5   -1    2    2    0.000019   -0.000000
    9    5   -1    3    2   -0.000050   -0.000000
    9    5   -1    4    2   -0.000093    0.000000
    9    5   -1    1    3    0.000071   -0.000000
    9    5   -1    2    3   -0.000025   -0.000000
    9    5   -1    3    3    0.000019   -0.000000
    9    5   -1    4    3    0.000080    0.000000
    9    5   -1    1    4   -0.000002    0.000000
    9    5   -1    2    4    0.000064    0.000000
    9    5   -1    3    4   -0.000012   -0.000000
    9    5   -1    4    4    0.000016   -0.000000
    9    5    0    1    1   -0.000056    0.000000
    9    5    0    2    1    0.000253    0.000000
    9    5    0    3    1   -0.000083   -0.000000
    9    5    0    4    1   -0.000092   -0.000000
    9    5    0    1    2   -0.000075   -0.000000
    9    5    0    2    2   -0.000071   -0.000000
    9    5    0    3    2    0.000018    0.000000
    9    5    0    4    2    0.000012    0.000000
    9    5    0    1    3    0.000071   -0.000000
    9    5    0    2    3   -0.000025    0.000000
    9    5    0    3    3   -0.000071    0.000000
    9    5    0    4    3    0.000085    0.000000
    9    5    0    1    4   -0.000002   -0.000000
    9    5    0    2    4    0.000064    0.000000
    9    5    0    3    4    0.000010   -0.000000
    9    5    0    4    4   -0.000056   -0.000000
    9    5    1    1    1    0.000016    0.000000
    9    5    1    2    1   -0.000116   -0.000000
    9    5    1    3    1   -0.000083    0.000000
    9    5    1    4    1   -0.000092    0.000000
    9    5    1    1    2   -0.000045   -0.000000
    9    5    1    2    2    0.000019    0.000000
    9    5    1    3    2    0.000018   -0.000000
    9    5    1    4    2    0.000012   -0.000000
    9    5    1    1    3   -0.000150    0.000000
    9    5    1    2    3    0.000043   -0.000000
    9    5    1    3    3    0.000019   -0.000000
    9    5    1    4    3    0.000080   -0.000000
    9    5    1    1    4    0.000063   -0.000000
    9    5    1    2    4    0.000094    0.000000
    9    5    1    3    4   -0.000012    0.000000
    9    5    1    4    4    0.000016    0.000000
