 
             +---------------------------------------------------+
             |                                                   |
             |                   WANNIER90                       |
             |                                                   |
             +---------------------------------------------------+
             |                                                   |
             |        Welcome to the Maximally-Localized         |
             |        Generalized Wannier Functions code         |
             |            http://www.wannier.org                 |
             |                                                   |
             |                                                   |
             |  Wannier90 Developer Group:                       |
             |    Giovanni Pizzi    (EPFL)                       |
             |    Valerio Vitale    (Cambridge)                  |
             |    David Vanderbilt  (Rutgers University)         |
             |    Nicola Marzari    (EPFL)                       |
             |    Ivo Souza         (Universidad del Pais Vasco) |
             |    Arash A. Mostofi  (Imperial College London)    |
             |    Jonathan R. Yates (University of Oxford)       |
             |                                                   |
             |  For the full list of Wannier90 3.x authors,      |
             |  please check the code documentation and the      |
             |  README on the GitHub page of the code            |
             |                                                   |
             |                                                   |
             |  Please cite                                      |
             |                                                   |
             |  [ref] "Wannier90 as a community code:            |
             |        new features and applications",            |
             |        G. Pizzi et al., J. Phys. Cond. Matt. 32,  |
             |        165902 (2020).                             |
             |        http://doi.org/10.1088/1361-648X/ab51ff    |
             |                                                   |
             |  in any publications arising from the use of      |
             |  this code. For the method please cite            |
             |                                                   |
             |  [ref] "Maximally Localized Generalised Wannier   |
             |         Functions for Composite Energy Bands"     |
             |         N. Marzari and D. Vanderbilt              |
             |         Phys. Rev. B 56 12847 (1997)              |
             |                                                   |
             |  [ref] "Maximally Localized Wannier Functions     |
             |         for Entangled Energy Bands"               |
             |         I. Souza, N. Marzari and D. Vanderbilt    |
             |         Phys. Rev. B 65 035109 (2001)             |
             |                                                   |
             |                                                   |
             | Copyright (c) 1996-2020                           |
             |        The Wannier90 Developer Group and          |
             |        individual contributors                    |
             |                                                   |
             |      Release: 3.1.0        5th March    2020      |
             |                                                   |
             | This program is free software; you can            |
             | redistribute it and/or modify it under the terms  |
             | of the GNU General Public License as published by |
             | the Free Software Foundation; either version 2 of |
             | the License, or (at your option) any later version|
             |                                                   |
             | This program is distributed in the hope that it   |
             | will be useful, but WITHOUT ANY WARRANTY; without |
             | even the implied warranty of MERCHANTABILITY or   |
             | FITNESS FOR A PARTICULAR PURPOSE. See the GNU     |
             | General Public License for more details.          |
             |                                                   |
             | You should have received a copy of the GNU General|
             | Public License along with this program; if not,   |
             | write to the Free Software Foundation, Inc.,      |
             | 675 Mass Ave, Cambridge, MA 02139, USA.           |
             |                                                   |
             +---------------------------------------------------+
             |    Execution started on  8Nov2021 at 22:56:35     |
             +---------------------------------------------------+
 
 ******************************************************************************
 * -> Using CODATA 2006 constant values                                       *
 *    (http://physics.nist.gov/cuu/Constants/index.html)                      *
 * -> Using Bohr value from CODATA                                            *
 ******************************************************************************
 

 Running in serial (with parallel executable)
 
                                    ------
                                    SYSTEM
                                    ------
 
                              Lattice Vectors (Ang)
                    a_1     2.447542   0.000000   0.000000
                    a_2    -1.223771   2.119633   0.000000
                    a_3     0.000000   0.000000   6.650791
 
                   Unit Cell Volume:      34.50357  (Ang^3)
 
                        Reciprocal-Space Vectors (Ang^-1)
                    b_1     2.567141   1.482140   0.000000
                    b_2     0.000000   2.964280   0.000000
                    b_3     0.000000   0.000000   0.944727
  
 *----------------------------------------------------------------------------*
 |   Site       Fractional Coordinate          Cartesian Coordinate (Ang)     |
 +----------------------------------------------------------------------------+
 | C    1   0.00000   0.00000   0.00000   |    0.00000   0.00000   0.00000    |
 | C    2   0.33333   0.66667   0.00000   |    0.00000   1.41309   0.00000    |
 | C    3   0.33333   0.66667   0.50000   |    0.00000   1.41309   3.32540    |
 | C    4   0.66667   0.33333   0.50000   |    1.22377   0.70654   3.32540    |
 *----------------------------------------------------------------------------*
                                ------------
                                K-POINT GRID
                                ------------
  
             Grid size = 15 x 15 x  3      Total points =  675
  
  
 *---------------------------------- MAIN ------------------------------------*
 |  Number of Wannier Functions               :                 4             |
 |  Number of Objective Wannier Functions     :                 4             |
 |  Number of input Bloch states              :                14             |
 |  Output verbosity (1=low, 5=high)          :                 1             |
 |  Timing Level (1=low, 5=high)              :                 1             |
 |  Optimisation (0=memory, 3=speed)          :                 3             |
 |  Length Unit                               :               Ang             |
 |  Post-processing setup (write *.nnkp)      :                 F             |
 |  Using Gamma-only branch of algorithms     :                 F             |
 *----------------------------------------------------------------------------*
 *------------------------------- WANNIERISE ---------------------------------*
 |  Total number of iterations                :               200             |
 |  Number of CG steps before reset           :                 5             |
 |  Trial step length for line search         :             2.000             |
 |  Convergence tolerence                     :         0.100E-09             |
 |  Convergence window                        :                -1             |
 |  Iterations between writing output         :                 1             |
 |  Iterations between backing up to disk     :               100             |
 |  Write r^2_nm to file                      :                 F             |
 |  Write xyz WF centres to file              :                 T             |
 |  Write on-site energies <0n|H|0n> to file  :                 T             |
 |  Use guiding centre to control phases      :                 F             |
 |  Use phases for initial projections        :                 F             |
 *----------------------------------------------------------------------------*
 *------------------------------- DISENTANGLE --------------------------------*
 |  Using band disentanglement                :                 T             |
 |  Total number of iterations                :             10000             |
 |  Mixing ratio                              :             0.500             |
 |  Convergence tolerence                     :         1.000E-10             |
 |  Convergence window                        :                 3             |
 *----------------------------------------------------------------------------*
 *-------------------------------- PLOTTING ----------------------------------*
 |  Plotting interpolated bandstructure       :                 T             |
 |   Number of K-path sections                :                 7             |
 |   Divisions along first K-path section     :               100             |
 |   Output format                            :           gnuplot             |
 |   Output mode                              :               s-k             |
 *----------------------------------------------------------------------------*
 |   K-space path sections:                                                   |
 |    From: G       0.000  0.000  0.000     To: K       0.333  0.333  0.000   |
 |    From: K       0.333  0.333  0.000     To: M       0.500  0.000  0.000   |
 |    From: M       0.500  0.000  0.000     To: G       0.000  0.000  0.000   |
 |    From: G       0.000  0.000  0.000     To: A       0.000  0.000  0.500   |
 |    From: A       0.000  0.000  0.500     To: H       0.333  0.333  0.500   |
 |    From: H       0.333  0.333  0.500     To: L       0.500  0.000  0.500   |
 |    From: L       0.500  0.000  0.500     To: A       0.000  0.000  0.500   |
 *----------------------------------------------------------------------------*
 |  Plotting Hamiltonian in WF basis          :                 T             |
 *----------------------------------------------------------------------------*
 Time to read parameters        0.040 (sec)

 *---------------------------------- K-MESH ----------------------------------*
 +----------------------------------------------------------------------------+
 |                    Distance to Nearest-Neighbour Shells                    |
 |                    ------------------------------------                    |
 |          Shell             Distance (Ang^-1)          Multiplicity         |
 |          -----             -----------------          ------------         |
 |             1                   0.197619                      6            |
 |             2                   0.314909                      2            |
 |             3                   0.342286                      6            |
 |             4                   0.371781                     12            |
 |             5                   0.395237                      6            |
 |             6                   0.465110                     12            |
 |             7                   0.505352                     12            |
 |             8                   0.522850                     12            |
 |             9                   0.592856                      6            |
 |            10                   0.610360                     24            |
 |            11                   0.629818                      2            |
 |            12                   0.660094                     12            |
 |            13                   0.671302                     12            |
 |            14                   0.684571                      6            |
 |            15                   0.712524                     12            |
 |            16                   0.716820                     12            |
 |            17                   0.743561                     12            |
 |            18                   0.753529                     12            |
 |            19                   0.779011                     24            |
 |            20                   0.790475                      6            |
 |            21                   0.818562                     24            |
 |            22                   0.850893                     12            |
 |            23                   0.861400                     12            |
 |            24                   0.864956                     12            |
 |            25                   0.905603                     12            |
 |            26                   0.917157                     24            |
 |            27                   0.930220                     12            |
 |            28                   0.944727                      2            |
 |            29                   0.950980                     24            |
 |            30                   0.958793                     24            |
 |            31                   0.965175                     12            |
 |            32                   0.988093                      6            |
 |            33                   1.004823                     12            |
 |            34                   1.010703                     12            |
 |            35                   1.024072                     12            |
 |            36                   1.026857                      6            |
 +----------------------------------------------------------------------------+
 | The b-vectors are chosen automatically                                     |
 | The following shells are used:   1,  2                                     |
 +----------------------------------------------------------------------------+
 |                        Shell   # Nearest-Neighbours                        |
 |                        -----   --------------------                        |
 |                          1               6                                 |
 |                          2               2                                 |
 +----------------------------------------------------------------------------+
 | Completeness relation is fully satisfied [Eq. (B1), PRB 56, 12847 (1997)]  |
 +----------------------------------------------------------------------------+
 |                  b_k Vectors (Ang^-1) and Weights (Ang^2)                  |
 |                  ----------------------------------------                  |
 |            No.         b_k(x)      b_k(y)      b_k(z)        w_b           |
 |            ---        --------------------------------     --------        |
 |             1         0.000000    0.197619    0.000000     8.535379        |
 |             2         0.171143    0.098809    0.000000     8.535379        |
 |             3        -0.171143   -0.098809    0.000000     8.535379        |
 |             4        -0.171143    0.098809    0.000000     8.535379        |
 |             5         0.000000   -0.197619    0.000000     8.535379        |
 |             6         0.171143   -0.098809    0.000000     8.535379        |
 |             7         0.000000    0.000000    0.314909     5.041961        |
 |             8         0.000000    0.000000   -0.314909     5.041961        |
 +----------------------------------------------------------------------------+
 |                           b_k Directions (Ang^-1)                          |
 |                           -----------------------                          |
 |            No.           x           y           z                         |
 |            ---        --------------------------------                     |
 |             1         0.000000    0.197619    0.000000                     |
 |             2         0.171143    0.098809    0.000000                     |
 |             3        -0.171143    0.098809    0.000000                     |
 |             4         0.000000    0.000000    0.314909                     |
 +----------------------------------------------------------------------------+
  
 Time to get kmesh              0.266 (sec)
 *============================================================================*
 |                              MEMORY ESTIMATE                               |
 |         Maximum RAM allocated during each phase of the calculation         |
 *============================================================================*
 |                        Disentanglement           22.01 Mb                  |
 |                            Wannierise:            5.03 Mb                  |
 |                          plot_wannier:            5.03 Mb                  |
 *----------------------------------------------------------------------------*
  
 Starting a new Wannier90 calculation ...


 Reading overlaps from graphite.mmn    :  Created on  8Nov2021 at 22:46:48

 Reading projections from graphite.amn :  Created on  8Nov2021 at 22:46:42

 Time to read overlaps          0.656 (sec)

 *------------------------------- DISENTANGLE --------------------------------*
 +----------------------------------------------------------------------------+
 |                              Energy  Windows                               |
 |                              ---------------                               |
 |                   Outer:   -6.24914  to   19.00000  (eV)                   |
 |                   No frozen states were specified                          |
 +----------------------------------------------------------------------------+
   Number of target bands to extract:    4

                   Unitarised projection of Wannier functions                  
                   ------------------------------------------                  
   A_mn = <psi_m|g_n> --> S = A.A^+ --> U = S^-1/2.A
   In dis_project... done
   No inner window (linner = F)

                   Extraction of optimally-connected subspace                  
                   ------------------------------------------                  
 +---------------------------------------------------------------------+<-- DIS
 |  Iter     Omega_I(i-1)      Omega_I(i)      Delta (frac.)    Time   |<-- DIS
 +---------------------------------------------------------------------+<-- DIS
       1       4.15136629       4.03622850       2.853E-02      0.00    <-- DIS
       2       4.08957235       4.00524733       2.105E-02      0.02    <-- DIS
       3       4.04439821       3.98272087       1.549E-02      0.04    <-- DIS
       4       4.01125373       3.96530205       1.159E-02      0.05    <-- DIS
       5       3.98644317       3.95134444       8.883E-03      0.07    <-- DIS
       6       3.96739253       3.93985986       6.988E-03      0.09    <-- DIS
       7       3.95237013       3.93020728       5.639E-03      0.11    <-- DIS
       8       3.94021852       3.92195196       4.658E-03      0.12    <-- DIS
       9       3.93015960       3.91478917       3.926E-03      0.14    <-- DIS
      10       3.92166370       3.90849934       3.368E-03      0.16    <-- DIS
      11       3.91436406       3.90292048       2.932E-03      0.18    <-- DIS
      12       3.90800174       3.89793056       2.584E-03      0.19    <-- DIS
      13       3.90239010       3.89343588       2.300E-03      0.21    <-- DIS
      14       3.89739172       3.88936326       2.064E-03      0.23    <-- DIS
      15       3.89290333       3.88565460       1.866E-03      0.25    <-- DIS
      16       3.88884576       3.88226312       1.696E-03      0.26    <-- DIS
      17       3.88515720       3.87915063       1.548E-03      0.28    <-- DIS
      18       3.88178849       3.87628552       1.420E-03      0.30    <-- DIS
      19       3.87869996       3.87364139       1.306E-03      0.32    <-- DIS
      20       3.87585909       3.87119586       1.205E-03      0.33    <-- DIS
      21       3.87323889       3.86892981       1.114E-03      0.35    <-- DIS
      22       3.87081661       3.86682677       1.032E-03      0.37    <-- DIS
      23       3.86857296       3.86487237       9.575E-04      0.39    <-- DIS
      24       3.86649130       3.86305402       8.898E-04      0.40    <-- DIS
      25       3.86455724       3.86136058       8.279E-04      0.42    <-- DIS
      26       3.86275816       3.85978214       7.710E-04      0.44    <-- DIS
      27       3.86108293       3.85830984       7.187E-04      0.46    <-- DIS
      28       3.85952167       3.85693568       6.705E-04      0.47    <-- DIS
      29       3.85806554       3.85565245       6.259E-04      0.49    <-- DIS
      30       3.85670659       3.85445357       5.845E-04      0.51    <-- DIS
      31       3.85543766       3.85333307       5.462E-04      0.52    <-- DIS
      32       3.85425222       3.85228546       5.105E-04      0.54    <-- DIS
      33       3.85314433       3.85130572       4.774E-04      0.56    <-- DIS
      34       3.85210856       3.85038922       4.465E-04      0.58    <-- DIS
      35       3.85113992       3.84953169       4.178E-04      0.59    <-- DIS
      36       3.85023383       3.84872919       3.909E-04      0.61    <-- DIS
      37       3.84938607       3.84797805       3.659E-04      0.63    <-- DIS
      38       3.84859272       3.84727489       3.425E-04      0.65    <-- DIS
      39       3.84785016       3.84661657       3.207E-04      0.66    <-- DIS
      40       3.84715505       3.84600016       3.003E-04      0.68    <-- DIS
      41       3.84650427       3.84542293       2.812E-04      0.70    <-- DIS
      42       3.84589492       3.84488234       2.634E-04      0.72    <-- DIS
      43       3.84532431       3.84437604       2.467E-04      0.73    <-- DIS
      44       3.84478993       3.84390182       2.310E-04      0.75    <-- DIS
      45       3.84428944       3.84345763       2.164E-04      0.77    <-- DIS
      46       3.84382067       3.84304152       2.027E-04      0.79    <-- DIS
      47       3.84338158       3.84265173       1.899E-04      0.80    <-- DIS
      48       3.84297026       3.84228656       1.779E-04      0.82    <-- DIS
      49       3.84258495       3.84194444       1.667E-04      0.84    <-- DIS
      50       3.84222398       3.84162392       1.562E-04      0.86    <-- DIS
      51       3.84188580       3.84132362       1.464E-04      0.87    <-- DIS
      52       3.84156897       3.84104225       1.371E-04      0.89    <-- DIS
      53       3.84127212       3.84077862       1.285E-04      0.91    <-- DIS
      54       3.84099399       3.84053160       1.204E-04      0.93    <-- DIS
      55       3.84073339       3.84030015       1.128E-04      0.94    <-- DIS
      56       3.84048922       3.84008327       1.057E-04      0.96    <-- DIS
      57       3.84026043       3.83988004       9.906E-05      0.98    <-- DIS
      58       3.84004604       3.83968961       9.283E-05      0.99    <-- DIS
      59       3.83984516       3.83951116       8.699E-05      1.01    <-- DIS
      60       3.83965692       3.83934394       8.152E-05      1.03    <-- DIS
      61       3.83948052       3.83918724       7.639E-05      1.05    <-- DIS
      62       3.83931523       3.83904040       7.159E-05      1.07    <-- DIS
      63       3.83916033       3.83890279       6.709E-05      1.09    <-- DIS
      64       3.83901518       3.83877383       6.287E-05      1.10    <-- DIS
      65       3.83887915       3.83865298       5.892E-05      1.12    <-- DIS
      66       3.83875168       3.83853973       5.522E-05      1.14    <-- DIS
      67       3.83863222       3.83843359       5.175E-05      1.16    <-- DIS
      68       3.83852027       3.83833413       4.850E-05      1.17    <-- DIS
      69       3.83841536       3.83824091       4.545E-05      1.19    <-- DIS
      70       3.83831704       3.83815355       4.259E-05      1.21    <-- DIS
      71       3.83822490       3.83807168       3.992E-05      1.23    <-- DIS
      72       3.83813854       3.83799496       3.741E-05      1.24    <-- DIS
      73       3.83805762       3.83792305       3.506E-05      1.26    <-- DIS
      74       3.83798177       3.83785566       3.286E-05      1.28    <-- DIS
      75       3.83791069       3.83779250       3.080E-05      1.30    <-- DIS
      76       3.83784408       3.83773331       2.886E-05      1.31    <-- DIS
      77       3.83778165       3.83767783       2.705E-05      1.33    <-- DIS
      78       3.83772313       3.83762584       2.535E-05      1.35    <-- DIS
      79       3.83766830       3.83757711       2.376E-05      1.37    <-- DIS
      80       3.83761690       3.83753144       2.227E-05      1.38    <-- DIS
      81       3.83756873       3.83748863       2.087E-05      1.40    <-- DIS
      82       3.83752359       3.83744852       1.956E-05      1.42    <-- DIS
      83       3.83748128       3.83741092       1.833E-05      1.43    <-- DIS
      84       3.83744162       3.83737568       1.718E-05      1.45    <-- DIS
      85       3.83740446       3.83734265       1.611E-05      1.47    <-- DIS
      86       3.83736962       3.83731170       1.510E-05      1.49    <-- DIS
      87       3.83733697       3.83728269       1.415E-05      1.50    <-- DIS
      88       3.83730638       3.83725549       1.326E-05      1.52    <-- DIS
      89       3.83727770       3.83723001       1.243E-05      1.54    <-- DIS
      90       3.83725082       3.83720612       1.165E-05      1.56    <-- DIS
      91       3.83722563       3.83718373       1.092E-05      1.57    <-- DIS
      92       3.83720201       3.83716275       1.023E-05      1.59    <-- DIS
      93       3.83717988       3.83714308       9.591E-06      1.61    <-- DIS
      94       3.83715914       3.83712465       8.989E-06      1.63    <-- DIS
      95       3.83713970       3.83710737       8.425E-06      1.64    <-- DIS
      96       3.83712148       3.83709118       7.897E-06      1.66    <-- DIS
      97       3.83710440       3.83707600       7.402E-06      1.68    <-- DIS
      98       3.83708839       3.83706177       6.937E-06      1.70    <-- DIS
      99       3.83707339       3.83704844       6.502E-06      1.72    <-- DIS
     100       3.83705932       3.83703594       6.095E-06      1.73    <-- DIS
     101       3.83704614       3.83702423       5.712E-06      1.75    <-- DIS
     102       3.83703379       3.83701325       5.354E-06      1.77    <-- DIS
     103       3.83702221       3.83700296       5.018E-06      1.79    <-- DIS
     104       3.83701136       3.83699331       4.704E-06      1.80    <-- DIS
     105       3.83700119       3.83698427       4.409E-06      1.82    <-- DIS
     106       3.83699165       3.83697580       4.132E-06      1.84    <-- DIS
     107       3.83698271       3.83696785       3.873E-06      1.86    <-- DIS
     108       3.83697434       3.83696041       3.630E-06      1.87    <-- DIS
     109       3.83696649       3.83695343       3.403E-06      1.89    <-- DIS
     110       3.83695913       3.83694689       3.189E-06      1.91    <-- DIS
     111       3.83695223       3.83694076       2.989E-06      1.93    <-- DIS
     112       3.83694577       3.83693501       2.802E-06      1.94    <-- DIS
     113       3.83693971       3.83692963       2.626E-06      1.96    <-- DIS
     114       3.83693403       3.83692458       2.462E-06      1.98    <-- DIS
     115       3.83692870       3.83691985       2.307E-06      2.00    <-- DIS
     116       3.83692371       3.83691541       2.163E-06      2.01    <-- DIS
     117       3.83691904       3.83691126       2.027E-06      2.03    <-- DIS
     118       3.83691465       3.83690736       1.900E-06      2.05    <-- DIS
     119       3.83691054       3.83690371       1.781E-06      2.07    <-- DIS
     120       3.83690669       3.83690029       1.669E-06      2.08    <-- DIS
     121       3.83690308       3.83689708       1.565E-06      2.10    <-- DIS
     122       3.83689970       3.83689407       1.467E-06      2.12    <-- DIS
     123       3.83689652       3.83689125       1.375E-06      2.14    <-- DIS
     124       3.83689355       3.83688861       1.289E-06      2.15    <-- DIS
     125       3.83689077       3.83688613       1.208E-06      2.17    <-- DIS
     126       3.83688815       3.83688381       1.132E-06      2.19    <-- DIS
     127       3.83688570       3.83688163       1.061E-06      2.20    <-- DIS
     128       3.83688341       3.83687959       9.946E-07      2.22    <-- DIS
     129       3.83688126       3.83687768       9.323E-07      2.24    <-- DIS
     130       3.83687924       3.83687589       8.739E-07      2.26    <-- DIS
     131       3.83687735       3.83687421       8.191E-07      2.27    <-- DIS
     132       3.83687558       3.83687264       7.678E-07      2.29    <-- DIS
     133       3.83687392       3.83687116       7.196E-07      2.31    <-- DIS
     134       3.83687237       3.83686978       6.745E-07      2.33    <-- DIS
     135       3.83687091       3.83686848       6.323E-07      2.34    <-- DIS
     136       3.83686954       3.83686727       5.926E-07      2.36    <-- DIS
     137       3.83686826       3.83686613       5.555E-07      2.38    <-- DIS
     138       3.83686706       3.83686506       5.207E-07      2.40    <-- DIS
     139       3.83686593       3.83686406       4.881E-07      2.41    <-- DIS
     140       3.83686487       3.83686312       4.575E-07      2.43    <-- DIS
     141       3.83686389       3.83686224       4.288E-07      2.45    <-- DIS
     142       3.83686296       3.83686142       4.019E-07      2.47    <-- DIS
     143       3.83686209       3.83686064       3.768E-07      2.48    <-- DIS
     144       3.83686127       3.83685992       3.531E-07      2.50    <-- DIS
     145       3.83686051       3.83685924       3.310E-07      2.52    <-- DIS
     146       3.83685979       3.83685860       3.103E-07      2.54    <-- DIS
     147       3.83685912       3.83685801       2.908E-07      2.55    <-- DIS
     148       3.83685849       3.83685745       2.726E-07      2.57    <-- DIS
     149       3.83685790       3.83685692       2.555E-07      2.59    <-- DIS
     150       3.83685735       3.83685643       2.395E-07      2.60    <-- DIS
     151       3.83685683       3.83685597       2.245E-07      2.62    <-- DIS
     152       3.83685635       3.83685554       2.104E-07      2.64    <-- DIS
     153       3.83685589       3.83685514       1.973E-07      2.66    <-- DIS
     154       3.83685547       3.83685476       1.849E-07      2.67    <-- DIS
     155       3.83685507       3.83685440       1.733E-07      2.69    <-- DIS
     156       3.83685469       3.83685407       1.625E-07      2.71    <-- DIS
     157       3.83685434       3.83685376       1.523E-07      2.73    <-- DIS
     158       3.83685401       3.83685346       1.427E-07      2.74    <-- DIS
     159       3.83685370       3.83685319       1.338E-07      2.76    <-- DIS
     160       3.83685341       3.83685293       1.254E-07      2.78    <-- DIS
     161       3.83685314       3.83685269       1.176E-07      2.80    <-- DIS
     162       3.83685289       3.83685247       1.102E-07      2.81    <-- DIS
     163       3.83685265       3.83685225       1.033E-07      2.83    <-- DIS
     164       3.83685243       3.83685206       9.681E-08      2.85    <-- DIS
     165       3.83685222       3.83685187       9.075E-08      2.87    <-- DIS
     166       3.83685202       3.83685169       8.506E-08      2.88    <-- DIS
     167       3.83685184       3.83685153       7.973E-08      2.90    <-- DIS
     168       3.83685166       3.83685138       7.474E-08      2.92    <-- DIS
     169       3.83685150       3.83685123       7.006E-08      2.94    <-- DIS
     170       3.83685135       3.83685110       6.567E-08      2.95    <-- DIS
     171       3.83685121       3.83685097       6.155E-08      2.97    <-- DIS
     172       3.83685108       3.83685085       5.770E-08      2.99    <-- DIS
     173       3.83685095       3.83685074       5.408E-08      3.00    <-- DIS
     174       3.83685083       3.83685064       5.070E-08      3.02    <-- DIS
     175       3.83685072       3.83685054       4.752E-08      3.04    <-- DIS
     176       3.83685062       3.83685045       4.454E-08      3.06    <-- DIS
     177       3.83685053       3.83685037       4.175E-08      3.08    <-- DIS
     178       3.83685044       3.83685029       3.914E-08      3.09    <-- DIS
     179       3.83685035       3.83685021       3.669E-08      3.11    <-- DIS
     180       3.83685027       3.83685014       3.439E-08      3.13    <-- DIS
     181       3.83685020       3.83685007       3.223E-08      3.15    <-- DIS
     182       3.83685013       3.83685001       3.021E-08      3.17    <-- DIS
     183       3.83685006       3.83684995       2.832E-08      3.18    <-- DIS
     184       3.83685000       3.83684990       2.655E-08      3.20    <-- DIS
     185       3.83684994       3.83684985       2.488E-08      3.22    <-- DIS
     186       3.83684989       3.83684980       2.333E-08      3.24    <-- DIS
     187       3.83684984       3.83684976       2.186E-08      3.25    <-- DIS
     188       3.83684979       3.83684971       2.049E-08      3.27    <-- DIS
     189       3.83684975       3.83684967       1.921E-08      3.29    <-- DIS
     190       3.83684971       3.83684964       1.801E-08      3.30    <-- DIS
     191       3.83684967       3.83684960       1.688E-08      3.32    <-- DIS
     192       3.83684963       3.83684957       1.582E-08      3.34    <-- DIS
     193       3.83684960       3.83684954       1.483E-08      3.36    <-- DIS
     194       3.83684956       3.83684951       1.390E-08      3.37    <-- DIS
     195       3.83684953       3.83684948       1.303E-08      3.39    <-- DIS
     196       3.83684951       3.83684946       1.221E-08      3.41    <-- DIS
     197       3.83684948       3.83684944       1.145E-08      3.43    <-- DIS
     198       3.83684945       3.83684941       1.073E-08      3.44    <-- DIS
     199       3.83684943       3.83684939       1.006E-08      3.46    <-- DIS
     200       3.83684941       3.83684937       9.430E-09      3.48    <-- DIS
     201       3.83684939       3.83684936       8.840E-09      3.50    <-- DIS
     202       3.83684937       3.83684934       8.286E-09      3.51    <-- DIS
     203       3.83684935       3.83684932       7.767E-09      3.53    <-- DIS
     204       3.83684934       3.83684931       7.280E-09      3.55    <-- DIS
     205       3.83684932       3.83684929       6.824E-09      3.57    <-- DIS
     206       3.83684931       3.83684928       6.397E-09      3.58    <-- DIS
     207       3.83684929       3.83684927       5.996E-09      3.60    <-- DIS
     208       3.83684928       3.83684926       5.621E-09      3.62    <-- DIS
     209       3.83684927       3.83684925       5.269E-09      3.64    <-- DIS
     210       3.83684925       3.83684924       4.939E-09      3.65    <-- DIS
     211       3.83684924       3.83684923       4.629E-09      3.67    <-- DIS
     212       3.83684923       3.83684922       4.339E-09      3.69    <-- DIS
     213       3.83684922       3.83684921       4.068E-09      3.71    <-- DIS
     214       3.83684922       3.83684920       3.813E-09      3.72    <-- DIS
     215       3.83684921       3.83684919       3.574E-09      3.74    <-- DIS
     216       3.83684920       3.83684919       3.350E-09      3.76    <-- DIS
     217       3.83684919       3.83684918       3.140E-09      3.78    <-- DIS
     218       3.83684919       3.83684917       2.944E-09      3.80    <-- DIS
     219       3.83684918       3.83684917       2.759E-09      3.81    <-- DIS
     220       3.83684917       3.83684916       2.587E-09      3.83    <-- DIS
     221       3.83684917       3.83684916       2.425E-09      3.85    <-- DIS
     222       3.83684916       3.83684915       2.273E-09      3.87    <-- DIS
     223       3.83684916       3.83684915       2.130E-09      3.88    <-- DIS
     224       3.83684915       3.83684915       1.997E-09      3.90    <-- DIS
     225       3.83684915       3.83684914       1.872E-09      3.92    <-- DIS
     226       3.83684914       3.83684914       1.755E-09      3.94    <-- DIS
     227       3.83684914       3.83684913       1.645E-09      3.95    <-- DIS
     228       3.83684914       3.83684913       1.542E-09      3.97    <-- DIS
     229       3.83684913       3.83684913       1.445E-09      3.99    <-- DIS
     230       3.83684913       3.83684913       1.355E-09      4.01    <-- DIS
     231       3.83684913       3.83684912       1.270E-09      4.02    <-- DIS
     232       3.83684913       3.83684912       1.190E-09      4.04    <-- DIS
     233       3.83684912       3.83684912       1.116E-09      4.06    <-- DIS
     234       3.83684912       3.83684912       1.046E-09      4.08    <-- DIS
     235       3.83684912       3.83684911       9.805E-10      4.09    <-- DIS
     236       3.83684912       3.83684911       9.191E-10      4.11    <-- DIS
     237       3.83684911       3.83684911       8.615E-10      4.13    <-- DIS
     238       3.83684911       3.83684911       8.076E-10      4.15    <-- DIS
     239       3.83684911       3.83684911       7.570E-10      4.16    <-- DIS
     240       3.83684911       3.83684911       7.096E-10      4.18    <-- DIS
     241       3.83684911       3.83684910       6.652E-10      4.20    <-- DIS
     242       3.83684911       3.83684910       6.235E-10      4.22    <-- DIS
     243       3.83684910       3.83684910       5.845E-10      4.23    <-- DIS
     244       3.83684910       3.83684910       5.479E-10      4.25    <-- DIS
     245       3.83684910       3.83684910       5.136E-10      4.27    <-- DIS
     246       3.83684910       3.83684910       4.814E-10      4.29    <-- DIS
     247       3.83684910       3.83684910       4.513E-10      4.30    <-- DIS
     248       3.83684910       3.83684910       4.230E-10      4.32    <-- DIS
     249       3.83684910       3.83684910       3.965E-10      4.34    <-- DIS
     250       3.83684910       3.83684910       3.717E-10      4.36    <-- DIS
     251       3.83684910       3.83684909       3.484E-10      4.37    <-- DIS
     252       3.83684910       3.83684909       3.266E-10      4.39    <-- DIS
     253       3.83684909       3.83684909       3.061E-10      4.41    <-- DIS
     254       3.83684909       3.83684909       2.870E-10      4.43    <-- DIS
     255       3.83684909       3.83684909       2.690E-10      4.44    <-- DIS
     256       3.83684909       3.83684909       2.522E-10      4.46    <-- DIS
     257       3.83684909       3.83684909       2.364E-10      4.48    <-- DIS
     258       3.83684909       3.83684909       2.216E-10      4.49    <-- DIS
     259       3.83684909       3.83684909       2.077E-10      4.51    <-- DIS
     260       3.83684909       3.83684909       1.947E-10      4.53    <-- DIS
     261       3.83684909       3.83684909       1.825E-10      4.55    <-- DIS
     262       3.83684909       3.83684909       1.711E-10      4.56    <-- DIS
     263       3.83684909       3.83684909       1.604E-10      4.58    <-- DIS
     264       3.83684909       3.83684909       1.503E-10      4.60    <-- DIS
     265       3.83684909       3.83684909       1.409E-10      4.62    <-- DIS
     266       3.83684909       3.83684909       1.321E-10      4.63    <-- DIS
     267       3.83684909       3.83684909       1.238E-10      4.65    <-- DIS
     268       3.83684909       3.83684909       1.161E-10      4.67    <-- DIS
     269       3.83684909       3.83684909       1.088E-10      4.69    <-- DIS
     270       3.83684909       3.83684909       1.020E-10      4.70    <-- DIS
     271       3.83684909       3.83684909       9.562E-11      4.72    <-- DIS
     272       3.83684909       3.83684909       8.963E-11      4.74    <-- DIS
     273       3.83684909       3.83684909       8.402E-11      4.76    <-- DIS

             <<<      Delta < 1.000E-10  over  3 iterations     >>>
             <<< Disentanglement convergence criteria satisfied >>>

        Final Omega_I     3.83684909 (Ang^2)

 +----------------------------------------------------------------------------+

 Time to disentangle bands      4.807 (sec)

 Writing checkpoint file graphite.chk... done

 
 *------------------------------- WANNIERISE ---------------------------------*
 +--------------------------------------------------------------------+<-- CONV
 | Iter  Delta Spread     RMS Gradient      Spread (Ang^2)      Time  |<-- CONV
 +--------------------------------------------------------------------+<-- CONV
 
 ------------------------------------------------------------------------------
 Initial State
  WF centre and spread    1  ( -0.000000,  0.000000,  0.000000 )     0.96973770
  WF centre and spread    2  ( -0.000000,  1.413089,  0.000000 )     0.96409595
  WF centre and spread    3  ( -0.000000,  1.413089,  3.325396 )     0.96409572
  WF centre and spread    4  (  1.223770,  0.706544,  3.325396 )     0.96973838
  Sum of centres and spreads (  1.223770,  3.532722,  6.650792 )     3.86766776
 
      0     0.387E+01     0.0000000000        3.8676690033       4.81  <-- CONV
        O_D=      0.0228569 O_OD=      0.0079631 O_TOT=      3.8676690 <-- SPRD
 ------------------------------------------------------------------------------
 Cycle:      1
  WF centre and spread    1  ( -0.000000,  0.000000,  0.000000 )     0.96962284
  WF centre and spread    2  ( -0.000000,  1.413089,  0.000000 )     0.96359961
  WF centre and spread    3  (  0.000000,  1.413089,  3.325396 )     0.96359939
  WF centre and spread    4  (  1.223770,  0.706544,  3.325396 )     0.96962352
  Sum of centres and spreads (  1.223770,  3.532722,  6.650792 )     3.86644536
 
      1    -0.122E-02     0.0168269138        3.8664466062       4.82  <-- CONV
        O_D=      0.0223182 O_OD=      0.0072793 O_TOT=      3.8664466 <-- SPRD
 Delta: O_D= -0.5386667E-03 O_OD= -0.6837304E-03 O_TOT= -0.1222397E-02 <-- DLTA
 ------------------------------------------------------------------------------
 Cycle:      2
  WF centre and spread    1  ( -0.000000,  0.000000,  0.000000 )     0.96960461
  WF centre and spread    2  ( -0.000000,  1.413089,  0.000000 )     0.96326333
  WF centre and spread    3  (  0.000000,  1.413089,  3.325396 )     0.96326310
  WF centre and spread    4  (  1.223770,  0.706544,  3.325396 )     0.96960530
  Sum of centres and spreads (  1.223770,  3.532722,  6.650792 )     3.86573635
 
      2    -0.709E-03     0.0181501526        3.8657375958       4.83  <-- CONV
        O_D=      0.0220174 O_OD=      0.0068711 O_TOT=      3.8657376 <-- SPRD
 Delta: O_D= -0.3007674E-03 O_OD= -0.4082431E-03 O_TOT= -0.7090104E-03 <-- DLTA
 ------------------------------------------------------------------------------
 Cycle:      3
  WF centre and spread    1  ( -0.000000,  0.000000,  0.000000 )     0.96960819
  WF centre and spread    2  ( -0.000000,  1.413089,  0.000000 )     0.96318232
  WF centre and spread    3  (  0.000000,  1.413089,  3.325396 )     0.96318209
  WF centre and spread    4  (  1.223770,  0.706544,  3.325396 )     0.96960888
  Sum of centres and spreads (  1.223770,  3.532722,  6.650792 )     3.86558148
 
      3    -0.155E-03     0.0089366459        3.8655827237       4.85  <-- CONV
        O_D=      0.0219375 O_OD=      0.0067961 O_TOT=      3.8655827 <-- SPRD
 Delta: O_D= -0.7992574E-04 O_OD= -0.7494638E-04 O_TOT= -0.1548721E-03 <-- DLTA
 ------------------------------------------------------------------------------
 Cycle:      4
  WF centre and spread    1  ( -0.000000,  0.000000,  0.000000 )     0.96960801
  WF centre and spread    2  ( -0.000000,  1.413089,  0.000000 )     0.96316275
  WF centre and spread    3  (  0.000000,  1.413089,  3.325396 )     0.96316253
  WF centre and spread    4  (  1.223770,  0.706544,  3.325396 )     0.96960869
  Sum of centres and spreads (  1.223770,  3.532722,  6.650792 )     3.86554198
 
      4    -0.395E-04     0.0044200516        3.8655432263       4.86  <-- CONV
        O_D=      0.0219182 O_OD=      0.0067759 O_TOT=      3.8655432 <-- SPRD
 Delta: O_D= -0.1930186E-04 O_OD= -0.2019554E-04 O_TOT= -0.3949740E-04 <-- DLTA
 ------------------------------------------------------------------------------
 Cycle:      5
  WF centre and spread    1  ( -0.000000,  0.000000,  0.000000 )     0.96960449
  WF centre and spread    2  ( -0.000000,  1.413089,  0.000000 )     0.96316119
  WF centre and spread    3  (  0.000000,  1.413089,  3.325396 )     0.96316097
  WF centre and spread    4  (  1.223770,  0.706544,  3.325396 )     0.96960517
  Sum of centres and spreads (  1.223770,  3.532722,  6.650792 )     3.86553182
 
      5    -0.102E-04     0.0022172751        3.8655330696       4.88  <-- CONV
        O_D=      0.0219150 O_OD=      0.0067690 O_TOT=      3.8655331 <-- SPRD
 Delta: O_D= -0.3173144E-05 O_OD= -0.6983549E-05 O_TOT= -0.1015669E-04 <-- DLTA
 ------------------------------------------------------------------------------
 Cycle:      6
  WF centre and spread    1  ( -0.000000,  0.000000,  0.000000 )     0.96959912
  WF centre and spread    2  ( -0.000000,  1.413089,  0.000000 )     0.96316502
  WF centre and spread    3  (  0.000000,  1.413089,  3.325396 )     0.96316480
  WF centre and spread    4  (  1.223770,  0.706544,  3.325396 )     0.96959980
  Sum of centres and spreads (  1.223770,  3.532722,  6.650792 )     3.86552874
 
      6    -0.309E-05     0.0011167075        3.8655299834       4.89  <-- CONV
        O_D=      0.0219152 O_OD=      0.0067657 O_TOT=      3.8655300 <-- SPRD
 Delta: O_D=  0.2043492E-06 O_OD= -0.3290491E-05 O_TOT= -0.3086141E-05 <-- DLTA
 ------------------------------------------------------------------------------
 Cycle:      7
  WF centre and spread    1  ( -0.000000,  0.000000,  0.000000 )     0.96959785
  WF centre and spread    2  ( -0.000000,  1.413089,  0.000000 )     0.96316569
  WF centre and spread    3  (  0.000000,  1.413089,  3.325396 )     0.96316547
  WF centre and spread    4  (  1.223770,  0.706544,  3.325396 )     0.96959854
  Sum of centres and spreads (  1.223770,  3.532722,  6.650792 )     3.86552755
 
      7    -0.119E-05     0.0008502990        3.8655287936       4.90  <-- CONV
        O_D=      0.0219149 O_OD=      0.0067648 O_TOT=      3.8655288 <-- SPRD
 Delta: O_D= -0.3710043E-06 O_OD= -0.8188019E-06 O_TOT= -0.1189806E-05 <-- DLTA
 ------------------------------------------------------------------------------
 Cycle:      8
  WF centre and spread    1  ( -0.000000,  0.000000,  0.000000 )     0.96959617
  WF centre and spread    2  ( -0.000000,  1.413089,  0.000000 )     0.96316683
  WF centre and spread    3  (  0.000000,  1.413089,  3.325396 )     0.96316661
  WF centre and spread    4  (  1.223770,  0.706544,  3.325396 )     0.96959685
  Sum of centres and spreads (  1.223770,  3.532722,  6.650792 )     3.86552646
 
      8    -0.109E-05     0.0005582574        3.8655277034       4.92  <-- CONV
        O_D=      0.0219150 O_OD=      0.0067637 O_TOT=      3.8655277 <-- SPRD
 Delta: O_D=  0.1008357E-06 O_OD= -0.1191064E-05 O_TOT= -0.1090228E-05 <-- DLTA
 ------------------------------------------------------------------------------
 Cycle:      9
  WF centre and spread    1  ( -0.000000,  0.000000,  0.000000 )     0.96959739
  WF centre and spread    2  ( -0.000000,  1.413089,  0.000000 )     0.96316526
  WF centre and spread    3  (  0.000000,  1.413089,  3.325396 )     0.96316504
  WF centre and spread    4  (  1.223770,  0.706544,  3.325396 )     0.96959807
  Sum of centres and spreads (  1.223770,  3.532722,  6.650792 )     3.86552575
 
      9    -0.708E-06     0.0005043366        3.8655269956       4.93  <-- CONV
        O_D=      0.0219150 O_OD=      0.0067629 O_TOT=      3.8655270 <-- SPRD
 Delta: O_D=  0.2081606E-07 O_OD= -0.7286287E-06 O_TOT= -0.7078127E-06 <-- DLTA
 ------------------------------------------------------------------------------
 Cycle:     10
  WF centre and spread    1  ( -0.000000,  0.000000,  0.000000 )     0.96960165
  WF centre and spread    2  ( -0.000000,  1.413089,  0.000000 )     0.96316083
  WF centre and spread    3  (  0.000000,  1.413089,  3.325396 )     0.96316061
  WF centre and spread    4  (  1.223770,  0.706544,  3.325396 )     0.96960233
  Sum of centres and spreads (  1.223770,  3.532722,  6.650792 )     3.86552541
 
     10    -0.334E-06     0.0003600755        3.8655266620       4.95  <-- CONV
        O_D=      0.0219149 O_OD=      0.0067627 O_TOT=      3.8655267 <-- SPRD
 Delta: O_D= -0.6220943E-07 O_OD= -0.2713615E-06 O_TOT= -0.3335710E-06 <-- DLTA
 ------------------------------------------------------------------------------
 Cycle:     11
  WF centre and spread    1  ( -0.000000,  0.000000,  0.000000 )     0.96960801
  WF centre and spread    2  ( -0.000000,  1.413089,  0.000000 )     0.96315438
  WF centre and spread    3  (  0.000000,  1.413089,  3.325396 )     0.96315416
  WF centre and spread    4  (  1.223770,  0.706544,  3.325396 )     0.96960870
  Sum of centres and spreads (  1.223770,  3.532722,  6.650792 )     3.86552524
 
     11    -0.170E-06     0.0002548017        3.8655264915       4.96  <-- CONV
        O_D=      0.0219149 O_OD=      0.0067625 O_TOT=      3.8655265 <-- SPRD
 Delta: O_D= -0.3856287E-07 O_OD= -0.1319314E-06 O_TOT= -0.1704942E-06 <-- DLTA
 ------------------------------------------------------------------------------
 Cycle:     12
  WF centre and spread    1  ( -0.000000,  0.000000,  0.000000 )     0.96961414
  WF centre and spread    2  ( -0.000000,  1.413089,  0.000000 )     0.96314821
  WF centre and spread    3  (  0.000000,  1.413089,  3.325396 )     0.96314799
  WF centre and spread    4  (  1.223770,  0.706544,  3.325396 )     0.96961483
  Sum of centres and spreads (  1.223770,  3.532722,  6.650792 )     3.86552518
 
     12    -0.676E-07     0.0001714210        3.8655264240       4.97  <-- CONV
        O_D=      0.0219149 O_OD=      0.0067624 O_TOT=      3.8655264 <-- SPRD
 Delta: O_D=  0.1458334E-07 O_OD= -0.8213595E-07 O_TOT= -0.6755261E-07 <-- DLTA
 ------------------------------------------------------------------------------
 Cycle:     13
  WF centre and spread    1  ( -0.000000,  0.000000,  0.000000 )     0.96961751
  WF centre and spread    2  ( -0.000000,  1.413089,  0.000000 )     0.96314483
  WF centre and spread    3  (  0.000000,  1.413089,  3.325396 )     0.96314461
  WF centre and spread    4  (  1.223770,  0.706544,  3.325396 )     0.96961819
  Sum of centres and spreads (  1.223770,  3.532722,  6.650792 )     3.86552514
 
     13    -0.366E-07     0.0001275414        3.8655263874       4.99  <-- CONV
        O_D=      0.0219149 O_OD=      0.0067624 O_TOT=      3.8655264 <-- SPRD
 Delta: O_D= -0.1713969E-07 O_OD= -0.1948162E-07 O_TOT= -0.3662131E-07 <-- DLTA
 ------------------------------------------------------------------------------
 Cycle:     14
  WF centre and spread    1  ( -0.000000,  0.000000,  0.000000 )     0.96962565
  WF centre and spread    2  ( -0.000000,  1.413089,  0.000000 )     0.96313667
  WF centre and spread    3  (  0.000000,  1.413089,  3.325396 )     0.96313645
  WF centre and spread    4  (  1.223770,  0.706544,  3.325396 )     0.96962633
  Sum of centres and spreads (  1.223770,  3.532722,  6.650792 )     3.86552510
 
     14    -0.388E-07     0.0001081325        3.8655263485       5.00  <-- CONV
        O_D=      0.0219149 O_OD=      0.0067624 O_TOT=      3.8655263 <-- SPRD
 Delta: O_D=  0.3256525E-08 O_OD= -0.4207905E-07 O_TOT= -0.3882252E-07 <-- DLTA
 ------------------------------------------------------------------------------
 Cycle:     15
  WF centre and spread    1  ( -0.000000,  0.000000,  0.000000 )     0.96963795
  WF centre and spread    2  ( -0.000000,  1.413089,  0.000000 )     0.96312436
  WF centre and spread    3  (  0.000000,  1.413089,  3.325396 )     0.96312413
  WF centre and spread    4  (  1.223770,  0.706544,  3.325396 )     0.96963863
  Sum of centres and spreads (  1.223770,  3.532722,  6.650792 )     3.86552506
 
     15    -0.374E-07     0.0000998451        3.8655263111       5.01  <-- CONV
        O_D=      0.0219149 O_OD=      0.0067623 O_TOT=      3.8655263 <-- SPRD
 Delta: O_D=  0.3616877E-08 O_OD= -0.4102260E-07 O_TOT= -0.3740572E-07 <-- DLTA
 ------------------------------------------------------------------------------
 Cycle:     16
  WF centre and spread    1  ( -0.000000,  0.000000,  0.000000 )     0.96965642
  WF centre and spread    2  ( -0.000000,  1.413089,  0.000000 )     0.96310585
  WF centre and spread    3  (  0.000000,  1.413089,  3.325396 )     0.96310563
  WF centre and spread    4  (  1.223770,  0.706544,  3.325396 )     0.96965711
  Sum of centres and spreads (  1.223770,  3.532722,  6.650792 )     3.86552502
 
     16    -0.444E-07     0.0001077920        3.8655262667       5.03  <-- CONV
        O_D=      0.0219149 O_OD=      0.0067623 O_TOT=      3.8655263 <-- SPRD
 Delta: O_D= -0.3478496E-08 O_OD= -0.4094879E-07 O_TOT= -0.4442729E-07 <-- DLTA
 ------------------------------------------------------------------------------
 Cycle:     17
  WF centre and spread    1  ( -0.000000,  0.000000,  0.000000 )     0.96967403
  WF centre and spread    2  ( -0.000000,  1.413089,  0.000000 )     0.96308823
  WF centre and spread    3  (  0.000000,  1.413089,  3.325396 )     0.96308801
  WF centre and spread    4  (  1.223770,  0.706544,  3.325396 )     0.96967471
  Sum of centres and spreads (  1.223770,  3.532722,  6.650792 )     3.86552498
 
     17    -0.379E-07     0.0001114857        3.8655262288       5.04  <-- CONV
        O_D=      0.0219149 O_OD=      0.0067623 O_TOT=      3.8655262 <-- SPRD
 Delta: O_D= -0.3677395E-09 O_OD= -0.3756378E-07 O_TOT= -0.3793152E-07 <-- DLTA
 ------------------------------------------------------------------------------
 Cycle:     18
  WF centre and spread    1  ( -0.000000,  0.000000,  0.000000 )     0.96968628
  WF centre and spread    2  ( -0.000000,  1.413089,  0.000000 )     0.96307597
  WF centre and spread    3  (  0.000000,  1.413089,  3.325396 )     0.96307575
  WF centre and spread    4  (  1.223770,  0.706544,  3.325396 )     0.96968696
  Sum of centres and spreads (  1.223770,  3.532722,  6.650792 )     3.86552496
 
     18    -0.239E-07     0.0000909439        3.8655262048       5.06  <-- CONV
        O_D=      0.0219149 O_OD=      0.0067622 O_TOT=      3.8655262 <-- SPRD
 Delta: O_D=  0.7314971E-08 O_OD= -0.3124737E-07 O_TOT= -0.2393240E-07 <-- DLTA
 ------------------------------------------------------------------------------
 Cycle:     19
  WF centre and spread    1  ( -0.000000,  0.000000,  0.000000 )     0.96968677
  WF centre and spread    2  ( -0.000000,  1.413089,  0.000000 )     0.96307547
  WF centre and spread    3  (  0.000000,  1.413089,  3.325396 )     0.96307526
  WF centre and spread    4  (  1.223770,  0.706544,  3.325396 )     0.96968745
  Sum of centres and spreads (  1.223770,  3.532722,  6.650792 )     3.86552494
 
     19    -0.142E-07     0.0000930482        3.8655261906       5.07  <-- CONV
        O_D=      0.0219149 O_OD=      0.0067622 O_TOT=      3.8655262 <-- SPRD
 Delta: O_D= -0.6470937E-08 O_OD= -0.7744229E-08 O_TOT= -0.1421517E-07 <-- DLTA
 ------------------------------------------------------------------------------
 Cycle:     20
  WF centre and spread    1  ( -0.000000,  0.000000,  0.000000 )     0.96968819
  WF centre and spread    2  ( -0.000000,  1.413089,  0.000000 )     0.96307405
  WF centre and spread    3  (  0.000000,  1.413089,  3.325396 )     0.96307383
  WF centre and spread    4  (  1.223770,  0.706544,  3.325396 )     0.96968887
  Sum of centres and spreads (  1.223770,  3.532722,  6.650792 )     3.86552493
 
     20    -0.105E-07     0.0000571184        3.8655261802       5.08  <-- CONV
        O_D=      0.0219149 O_OD=      0.0067622 O_TOT=      3.8655262 <-- SPRD
 Delta: O_D=  0.5752838E-09 O_OD= -0.1103949E-07 O_TOT= -0.1046420E-07 <-- DLTA
 ------------------------------------------------------------------------------
 Cycle:     21
  WF centre and spread    1  ( -0.000000,  0.000000,  0.000000 )     0.96969046
  WF centre and spread    2  ( -0.000000,  1.413089,  0.000000 )     0.96307177
  WF centre and spread    3  (  0.000000,  1.413089,  3.325396 )     0.96307156
  WF centre and spread    4  (  1.223770,  0.706544,  3.325396 )     0.96969114
  Sum of centres and spreads (  1.223770,  3.532722,  6.650792 )     3.86552492
 
     21    -0.807E-08     0.0000503728        3.8655261721       5.10  <-- CONV
        O_D=      0.0219149 O_OD=      0.0067622 O_TOT=      3.8655262 <-- SPRD
 Delta: O_D=  0.1134721E-08 O_OD= -0.9200314E-08 O_TOT= -0.8065593E-08 <-- DLTA
 ------------------------------------------------------------------------------
 Cycle:     22
  WF centre and spread    1  ( -0.000000,  0.000000,  0.000000 )     0.96969347
  WF centre and spread    2  ( -0.000000,  1.413089,  0.000000 )     0.96306875
  WF centre and spread    3  (  0.000000,  1.413089,  3.325396 )     0.96306854
  WF centre and spread    4  (  1.223770,  0.706544,  3.325396 )     0.96969415
  Sum of centres and spreads (  1.223770,  3.532722,  6.650792 )     3.86552492
 
     22    -0.566E-08     0.0000426390        3.8655261664       5.11  <-- CONV
        O_D=      0.0219149 O_OD=      0.0067622 O_TOT=      3.8655262 <-- SPRD
 Delta: O_D= -0.1711879E-08 O_OD= -0.3952055E-08 O_TOT= -0.5663935E-08 <-- DLTA
 ------------------------------------------------------------------------------
 Cycle:     23
  WF centre and spread    1  ( -0.000000,  0.000000,  0.000000 )     0.96969712
  WF centre and spread    2  ( -0.000000,  1.413089,  0.000000 )     0.96306511
  WF centre and spread    3  (  0.000000,  1.413089,  3.325396 )     0.96306489
  WF centre and spread    4  (  1.223770,  0.706544,  3.325396 )     0.96969780
  Sum of centres and spreads (  1.223770,  3.532722,  6.650792 )     3.86552491
 
     23    -0.450E-08     0.0000388153        3.8655261619       5.13  <-- CONV
        O_D=      0.0219149 O_OD=      0.0067622 O_TOT=      3.8655262 <-- SPRD
 Delta: O_D= -0.2701526E-08 O_OD= -0.1794515E-08 O_TOT= -0.4496040E-08 <-- DLTA
 ------------------------------------------------------------------------------
 Cycle:     24
  WF centre and spread    1  ( -0.000000,  0.000000,  0.000000 )     0.96969976
  WF centre and spread    2  ( -0.000000,  1.413089,  0.000000 )     0.96306247
  WF centre and spread    3  (  0.000000,  1.413089,  3.325396 )     0.96306225
  WF centre and spread    4  (  1.223770,  0.706544,  3.325396 )     0.96970044
  Sum of centres and spreads (  1.223770,  3.532722,  6.650792 )     3.86552491
 
     24    -0.239E-08     0.0000312261        3.8655261595       5.14  <-- CONV
        O_D=      0.0219149 O_OD=      0.0067622 O_TOT=      3.8655262 <-- SPRD
 Delta: O_D= -0.4633466E-09 O_OD= -0.1925240E-08 O_TOT= -0.2388587E-08 <-- DLTA
 ------------------------------------------------------------------------------
 Cycle:     25
  WF centre and spread    1  ( -0.000000,  0.000000,  0.000000 )     0.96970060
  WF centre and spread    2  ( -0.000000,  1.413089,  0.000000 )     0.96306162
  WF centre and spread    3  (  0.000000,  1.413089,  3.325396 )     0.96306140
  WF centre and spread    4  (  1.223770,  0.706544,  3.325396 )     0.96970128
  Sum of centres and spreads (  1.223770,  3.532722,  6.650792 )     3.86552491
 
     25    -0.166E-08     0.0000254848        3.8655261579       5.16  <-- CONV
        O_D=      0.0219149 O_OD=      0.0067622 O_TOT=      3.8655262 <-- SPRD
 Delta: O_D= -0.1749204E-08 O_OD=  0.9308895E-10 O_TOT= -0.1656115E-08 <-- DLTA
 ------------------------------------------------------------------------------
 Cycle:     26
  WF centre and spread    1  ( -0.000000,  0.000000,  0.000000 )     0.96970257
  WF centre and spread    2  ( -0.000000,  1.413089,  0.000000 )     0.96305965
  WF centre and spread    3  (  0.000000,  1.413089,  3.325396 )     0.96305943
  WF centre and spread    4  (  1.223770,  0.706544,  3.325396 )     0.96970325
  Sum of centres and spreads (  1.223770,  3.532722,  6.650792 )     3.86552491
 
     26    -0.190E-08     0.0000232742        3.8655261560       5.17  <-- CONV
        O_D=      0.0219149 O_OD=      0.0067622 O_TOT=      3.8655262 <-- SPRD
 Delta: O_D= -0.6872840E-09 O_OD= -0.1215004E-08 O_TOT= -0.1902289E-08 <-- DLTA
 ------------------------------------------------------------------------------
 Cycle:     27
  WF centre and spread    1  ( -0.000000,  0.000000,  0.000000 )     0.96970526
  WF centre and spread    2  ( -0.000000,  1.413089,  0.000000 )     0.96305696
  WF centre and spread    3  (  0.000000,  1.413089,  3.325396 )     0.96305674
  WF centre and spread    4  (  1.223770,  0.706544,  3.325396 )     0.96970594
  Sum of centres and spreads (  1.223770,  3.532722,  6.650792 )     3.86552491
 
     27    -0.160E-08     0.0000214105        3.8655261544       5.18  <-- CONV
        O_D=      0.0219149 O_OD=      0.0067622 O_TOT=      3.8655262 <-- SPRD
 Delta: O_D= -0.6004699E-09 O_OD= -0.9988931E-09 O_TOT= -0.1599363E-08 <-- DLTA
 ------------------------------------------------------------------------------
 Cycle:     28
  WF centre and spread    1  ( -0.000000,  0.000000,  0.000000 )     0.96970865
  WF centre and spread    2  ( -0.000000,  1.413089,  0.000000 )     0.96305358
  WF centre and spread    3  (  0.000000,  1.413089,  3.325396 )     0.96305336
  WF centre and spread    4  (  1.223770,  0.706544,  3.325396 )     0.96970933
  Sum of centres and spreads (  1.223770,  3.532722,  6.650792 )     3.86552490
 
     28    -0.172E-08     0.0000233413        3.8655261527       5.20  <-- CONV
        O_D=      0.0219149 O_OD=      0.0067622 O_TOT=      3.8655262 <-- SPRD
 Delta: O_D= -0.1256920E-08 O_OD= -0.4675891E-09 O_TOT= -0.1724509E-08 <-- DLTA
 ------------------------------------------------------------------------------
 Cycle:     29
  WF centre and spread    1  ( -0.000000,  0.000000,  0.000000 )     0.96971178
  WF centre and spread    2  ( -0.000000,  1.413089,  0.000000 )     0.96305044
  WF centre and spread    3  (  0.000000,  1.413089,  3.325396 )     0.96305023
  WF centre and spread    4  (  1.223770,  0.706544,  3.325396 )     0.96971245
  Sum of centres and spreads (  1.223770,  3.532722,  6.650792 )     3.86552490
 
     29    -0.150E-08     0.0000200057        3.8655261512       5.21  <-- CONV
        O_D=      0.0219149 O_OD=      0.0067622 O_TOT=      3.8655262 <-- SPRD
 Delta: O_D= -0.2327882E-09 O_OD= -0.1268338E-08 O_TOT= -0.1501127E-08 <-- DLTA
 ------------------------------------------------------------------------------
 Cycle:     30
  WF centre and spread    1  ( -0.000000,  0.000000,  0.000000 )     0.96971350
  WF centre and spread    2  ( -0.000000,  1.413089,  0.000000 )     0.96304872
  WF centre and spread    3  (  0.000000,  1.413089,  3.325396 )     0.96304850
  WF centre and spread    4  (  1.223770,  0.706544,  3.325396 )     0.96971418
  Sum of centres and spreads (  1.223770,  3.532722,  6.650792 )     3.86552490
 
     30    -0.950E-09     0.0000180516        3.8655261502       5.23  <-- CONV
        O_D=      0.0219149 O_OD=      0.0067622 O_TOT=      3.8655262 <-- SPRD
 Delta: O_D=  0.2946530E-09 O_OD= -0.1244744E-08 O_TOT= -0.9500907E-09 <-- DLTA
 ------------------------------------------------------------------------------
 Cycle:     31
  WF centre and spread    1  ( -0.000000,  0.000000,  0.000000 )     0.96971350
  WF centre and spread    2  ( -0.000000,  1.413089,  0.000000 )     0.96304872
  WF centre and spread    3  (  0.000000,  1.413089,  3.325396 )     0.96304850
  WF centre and spread    4  (  1.223770,  0.706544,  3.325396 )     0.96971418
  Sum of centres and spreads (  1.223770,  3.532722,  6.650792 )     3.86552490
 
     31    -0.176E-11     0.0000147122        3.8655261502       5.23  <-- CONV
        O_D=      0.0219149 O_OD=      0.0067622 O_TOT=      3.8655262 <-- SPRD
 Delta: O_D= -0.4216835E-12 O_OD= -0.1342723E-11 O_TOT= -0.1764811E-11 <-- DLTA
 ------------------------------------------------------------------------------
 Cycle:     32
  WF centre and spread    1  ( -0.000000,  0.000000,  0.000000 )     0.96971373
  WF centre and spread    2  ( -0.000000,  1.413089,  0.000000 )     0.96304849
  WF centre and spread    3  (  0.000000,  1.413089,  3.325396 )     0.96304827
  WF centre and spread    4  (  1.223770,  0.706544,  3.325396 )     0.96971441
  Sum of centres and spreads (  1.223770,  3.532722,  6.650792 )     3.86552490
 
     32    -0.633E-09     0.0000146917        3.8655261496       5.25  <-- CONV
        O_D=      0.0219149 O_OD=      0.0067622 O_TOT=      3.8655261 <-- SPRD
 Delta: O_D=  0.1425696E-09 O_OD= -0.7751439E-09 O_TOT= -0.6325744E-09 <-- DLTA
 ------------------------------------------------------------------------------
 Cycle:     33
  WF centre and spread    1  ( -0.000000,  0.000000,  0.000000 )     0.96971407
  WF centre and spread    2  ( -0.000000,  1.413089,  0.000000 )     0.96304815
  WF centre and spread    3  (  0.000000,  1.413089,  3.325396 )     0.96304793
  WF centre and spread    4  (  1.223770,  0.706544,  3.325396 )     0.96971475
  Sum of centres and spreads (  1.223770,  3.532722,  6.650792 )     3.86552490
 
     33    -0.263E-09     0.0000125578        3.8655261493       5.26  <-- CONV
        O_D=      0.0219149 O_OD=      0.0067622 O_TOT=      3.8655261 <-- SPRD
 Delta: O_D=  0.4515087E-09 O_OD= -0.7143477E-09 O_TOT= -0.2628386E-09 <-- DLTA
 ------------------------------------------------------------------------------
 Cycle:     34
  WF centre and spread    1  ( -0.000000,  0.000000,  0.000000 )     0.96971462
  WF centre and spread    2  ( -0.000000,  1.413089,  0.000000 )     0.96304760
  WF centre and spread    3  (  0.000000,  1.413089,  3.325396 )     0.96304739
  WF centre and spread    4  (  1.223770,  0.706544,  3.325396 )     0.96971529
  Sum of centres and spreads (  1.223770,  3.532722,  6.650792 )     3.86552490
 
     34    -0.291E-09     0.0000140452        3.8655261490       5.27  <-- CONV
        O_D=      0.0219149 O_OD=      0.0067622 O_TOT=      3.8655261 <-- SPRD
 Delta: O_D=  0.4978486E-09 O_OD= -0.7890974E-09 O_TOT= -0.2912488E-09 <-- DLTA
 ------------------------------------------------------------------------------
 Cycle:     35
  WF centre and spread    1  ( -0.000000,  0.000000,  0.000000 )     0.96971523
  WF centre and spread    2  ( -0.000000,  1.413089,  0.000000 )     0.96304699
  WF centre and spread    3  (  0.000000,  1.413089,  3.325396 )     0.96304678
  WF centre and spread    4  (  1.223770,  0.706544,  3.325396 )     0.96971590
  Sum of centres and spreads (  1.223770,  3.532722,  6.650792 )     3.86552490
 
     35    -0.225E-09     0.0000139082        3.8655261488       5.29  <-- CONV
        O_D=      0.0219149 O_OD=      0.0067622 O_TOT=      3.8655261 <-- SPRD
 Delta: O_D=  0.2484056E-09 O_OD= -0.4734853E-09 O_TOT= -0.2250795E-09 <-- DLTA
 ------------------------------------------------------------------------------
 Cycle:     36
  WF centre and spread    1  ( -0.000000,  0.000000,  0.000000 )     0.96971579
  WF centre and spread    2  ( -0.000000,  1.413089,  0.000000 )     0.96304643
  WF centre and spread    3  (  0.000000,  1.413089,  3.325396 )     0.96304621
  WF centre and spread    4  (  1.223770,  0.706544,  3.325396 )     0.96971647
  Sum of centres and spreads (  1.223770,  3.532722,  6.650792 )     3.86552490
 
     36    -0.181E-09     0.0000127817        3.8655261486       5.30  <-- CONV
        O_D=      0.0219149 O_OD=      0.0067622 O_TOT=      3.8655261 <-- SPRD
 Delta: O_D=  0.3224246E-10 O_OD= -0.2130748E-09 O_TOT= -0.1808327E-09 <-- DLTA
 ------------------------------------------------------------------------------
 Cycle:     37
  WF centre and spread    1  ( -0.000000,  0.000000,  0.000000 )     0.96971579
  WF centre and spread    2  ( -0.000000,  1.413089,  0.000000 )     0.96304643
  WF centre and spread    3  (  0.000000,  1.413089,  3.325396 )     0.96304621
  WF centre and spread    4  (  1.223770,  0.706544,  3.325396 )     0.96971647
  Sum of centres and spreads (  1.223770,  3.532722,  6.650792 )     3.86552490
 
     37    -0.984E-12     0.0000109874        3.8655261486       5.31  <-- CONV
        O_D=      0.0219149 O_OD=      0.0067622 O_TOT=      3.8655261 <-- SPRD
 Delta: O_D= -0.9796365E-12 O_OD= -0.4420075E-14 O_TOT= -0.9841017E-12 <-- DLTA
 ------------------------------------------------------------------------------
 Cycle:     38
  WF centre and spread    1  ( -0.000000,  0.000000,  0.000000 )     0.96971617
  WF centre and spread    2  ( -0.000000,  1.413089,  0.000000 )     0.96304605
  WF centre and spread    3  (  0.000000,  1.413089,  3.325396 )     0.96304583
  WF centre and spread    4  (  1.223770,  0.706544,  3.325396 )     0.96971685
  Sum of centres and spreads (  1.223770,  3.532722,  6.650792 )     3.86552490
 
     38    -0.335E-09     0.0000109719        3.8655261483       5.32  <-- CONV
        O_D=      0.0219149 O_OD=      0.0067622 O_TOT=      3.8655261 <-- SPRD
 Delta: O_D= -0.4861807E-09 O_OD=  0.1514726E-09 O_TOT= -0.3347078E-09 <-- DLTA
 ------------------------------------------------------------------------------
 Cycle:     39
  WF centre and spread    1  ( -0.000000,  0.000000,  0.000000 )     0.96971617
  WF centre and spread    2  ( -0.000000,  1.413089,  0.000000 )     0.96304605
  WF centre and spread    3  (  0.000000,  1.413089,  3.325396 )     0.96304583
  WF centre and spread    4  (  1.223770,  0.706544,  3.325396 )     0.96971685
  Sum of centres and spreads (  1.223770,  3.532722,  6.650792 )     3.86552490
 
     39    -0.433E-12     0.0000092305        3.8655261483       5.33  <-- CONV
        O_D=      0.0219149 O_OD=      0.0067622 O_TOT=      3.8655261 <-- SPRD
 Delta: O_D= -0.5559719E-12 O_OD=  0.1236016E-12 O_TOT= -0.4325429E-12 <-- DLTA
 ------------------------------------------------------------------------------
 Cycle:     40
  WF centre and spread    1  ( -0.000000,  0.000000,  0.000000 )     0.96971671
  WF centre and spread    2  ( -0.000000,  1.413089,  0.000000 )     0.96304551
  WF centre and spread    3  (  0.000000,  1.413089,  3.325396 )     0.96304529
  WF centre and spread    4  (  1.223770,  0.706544,  3.325396 )     0.96971739
  Sum of centres and spreads (  1.223770,  3.532722,  6.650792 )     3.86552490
 
     40    -0.180E-09     0.0000092282        3.8655261481       5.35  <-- CONV
        O_D=      0.0219149 O_OD=      0.0067622 O_TOT=      3.8655261 <-- SPRD
 Delta: O_D= -0.1952731E-09 O_OD=  0.1496266E-10 O_TOT= -0.1803104E-09 <-- DLTA
 ------------------------------------------------------------------------------
 Cycle:     41
  WF centre and spread    1  ( -0.000000,  0.000000,  0.000000 )     0.96971671
  WF centre and spread    2  ( -0.000000,  1.413089,  0.000000 )     0.96304551
  WF centre and spread    3  (  0.000000,  1.413089,  3.325396 )     0.96304529
  WF centre and spread    4  (  1.223770,  0.706544,  3.325396 )     0.96971739
  Sum of centres and spreads (  1.223770,  3.532722,  6.650792 )     3.86552490
 
     41    -0.363E-12     0.0000075485        3.8655261481       5.35  <-- CONV
        O_D=      0.0219149 O_OD=      0.0067622 O_TOT=      3.8655261 <-- SPRD
 Delta: O_D= -0.9154795E-12 O_OD=  0.5522761E-12 O_TOT= -0.3632650E-12 <-- DLTA
 ------------------------------------------------------------------------------
 Cycle:     42
  WF centre and spread    1  ( -0.000000,  0.000000,  0.000000 )     0.96971748
  WF centre and spread    2  ( -0.000000,  1.413089,  0.000000 )     0.96304474
  WF centre and spread    3  (  0.000000,  1.413089,  3.325396 )     0.96304452
  WF centre and spread    4  (  1.223770,  0.706544,  3.325396 )     0.96971816
  Sum of centres and spreads (  1.223770,  3.532722,  6.650792 )     3.86552490
 
     42    -0.112E-09     0.0000075445        3.8655261480       5.37  <-- CONV
        O_D=      0.0219149 O_OD=      0.0067622 O_TOT=      3.8655261 <-- SPRD
 Delta: O_D= -0.6295112E-09 O_OD=  0.5174365E-09 O_TOT= -0.1120748E-09 <-- DLTA
 ------------------------------------------------------------------------------
 Cycle:     43
  WF centre and spread    1  ( -0.000000,  0.000000,  0.000000 )     0.96971756
  WF centre and spread    2  ( -0.000000,  1.413089,  0.000000 )     0.96304466
  WF centre and spread    3  (  0.000000,  1.413089,  3.325396 )     0.96304444
  WF centre and spread    4  (  1.223770,  0.706544,  3.325396 )     0.96971824
  Sum of centres and spreads (  1.223770,  3.532722,  6.650792 )     3.86552490
 
     43    -0.123E-09     0.0000090198        3.8655261479       5.38  <-- CONV
        O_D=      0.0219149 O_OD=      0.0067622 O_TOT=      3.8655261 <-- SPRD
 Delta: O_D=  0.2613958E-10 O_OD= -0.1493974E-09 O_TOT= -0.1232578E-09 <-- DLTA
 ------------------------------------------------------------------------------
 Cycle:     44
  WF centre and spread    1  ( -0.000000,  0.000000,  0.000000 )     0.96971756
  WF centre and spread    2  ( -0.000000,  1.413089,  0.000000 )     0.96304466
  WF centre and spread    3  (  0.000000,  1.413089,  3.325396 )     0.96304444
  WF centre and spread    4  (  1.223770,  0.706544,  3.325396 )     0.96971824
  Sum of centres and spreads (  1.223770,  3.532722,  6.650792 )     3.86552490
 
     44    -0.187E-12     0.0000043949        3.8655261479       5.39  <-- CONV
        O_D=      0.0219149 O_OD=      0.0067622 O_TOT=      3.8655261 <-- SPRD
 Delta: O_D=  0.4707693E-13 O_OD= -0.2340090E-12 O_TOT= -0.1869616E-12 <-- DLTA
 ------------------------------------------------------------------------------
 Cycle:     45
  WF centre and spread    1  ( -0.000000,  0.000000,  0.000000 )     0.96971756
  WF centre and spread    2  ( -0.000000,  1.413089,  0.000000 )     0.96304466
  WF centre and spread    3  (  0.000000,  1.413089,  3.325396 )     0.96304444
  WF centre and spread    4  (  1.223770,  0.706544,  3.325396 )     0.96971824
  Sum of centres and spreads (  1.223770,  3.532722,  6.650792 )     3.86552490
 
     45    -0.343E-12     0.0000043896        3.8655261479       5.40  <-- CONV
        O_D=      0.0219149 O_OD=      0.0067622 O_TOT=      3.8655261 <-- SPRD
 Delta: O_D=  0.2794293E-13 O_OD= -0.3710521E-12 O_TOT= -0.3428369E-12 <-- DLTA
 ------------------------------------------------------------------------------
 Cycle:     46
  WF centre and spread    1  ( -0.000000,  0.000000,  0.000000 )     0.96971773
  WF centre and spread    2  ( -0.000000,  1.413089,  0.000000 )     0.96304449
  WF centre and spread    3  (  0.000000,  1.413089,  3.325396 )     0.96304428
  WF centre and spread    4  (  1.223770,  0.706544,  3.325396 )     0.96971840
  Sum of centres and spreads (  1.223770,  3.532722,  6.650792 )     3.86552490
 
     46    -0.634E-10     0.0000043784        3.8655261478       5.41  <-- CONV
        O_D=      0.0219149 O_OD=      0.0067622 O_TOT=      3.8655261 <-- SPRD
 Delta: O_D=  0.3051446E-10 O_OD= -0.9391190E-10 O_TOT= -0.6339729E-10 <-- DLTA
 ------------------------------------------------------------------------------
 Cycle:     47
  WF centre and spread    1  ( -0.000000,  0.000000,  0.000000 )     0.96971773
  WF centre and spread    2  ( -0.000000,  1.413089,  0.000000 )     0.96304449
  WF centre and spread    3  (  0.000000,  1.413089,  3.325396 )     0.96304427
  WF centre and spread    4  (  1.223770,  0.706544,  3.325396 )     0.96971841
  Sum of centres and spreads (  1.223770,  3.532722,  6.650792 )     3.86552490
 
     47    -0.187E-12     0.0000036591        3.8655261478       5.42  <-- CONV
        O_D=      0.0219149 O_OD=      0.0067622 O_TOT=      3.8655261 <-- SPRD
 Delta: O_D=  0.2002322E-12 O_OD= -0.3875164E-12 O_TOT= -0.1869616E-12 <-- DLTA
 ------------------------------------------------------------------------------
 Cycle:     48
  WF centre and spread    1  ( -0.000000,  0.000000,  0.000000 )     0.96971773
  WF centre and spread    2  ( -0.000000,  1.413089,  0.000000 )     0.96304449
  WF centre and spread    3  (  0.000000,  1.413089,  3.325396 )     0.96304427
  WF centre and spread    4  (  1.223770,  0.706544,  3.325396 )     0.96971841
  Sum of centres and spreads (  1.223770,  3.532722,  6.650792 )     3.86552490
 
     48    -0.298E-12     0.0000036622        3.8655261478       5.43  <-- CONV
        O_D=      0.0219149 O_OD=      0.0067622 O_TOT=      3.8655261 <-- SPRD
 Delta: O_D=  0.2017726E-12 O_OD= -0.4987486E-12 O_TOT= -0.2975398E-12 <-- DLTA
 ------------------------------------------------------------------------------
 Cycle:     49
  WF centre and spread    1  ( -0.000000,  0.000000,  0.000000 )     0.96971774
  WF centre and spread    2  ( -0.000000,  1.413089,  0.000000 )     0.96304448
  WF centre and spread    3  (  0.000000,  1.413089,  3.325396 )     0.96304426
  WF centre and spread    4  (  1.223770,  0.706544,  3.325396 )     0.96971842
  Sum of centres and spreads (  1.223770,  3.532722,  6.650792 )     3.86552490
 
     49    -0.647E-11     0.0000036594        3.8655261478       5.44  <-- CONV
        O_D=      0.0219149 O_OD=      0.0067622 O_TOT=      3.8655261 <-- SPRD
 Delta: O_D=  0.2876623E-12 O_OD= -0.6762626E-11 O_TOT= -0.6474821E-11 <-- DLTA
 ------------------------------------------------------------------------------
 Cycle:     50
  WF centre and spread    1  ( -0.000000,  0.000000,  0.000000 )     0.96971774
  WF centre and spread    2  ( -0.000000,  1.413089,  0.000000 )     0.96304448
  WF centre and spread    3  (  0.000000,  1.413089,  3.325396 )     0.96304426
  WF centre and spread    4  (  1.223770,  0.706544,  3.325396 )     0.96971842
  Sum of centres and spreads (  1.223770,  3.532722,  6.650792 )     3.86552490
 
     50    -0.170E-12     0.0000033179        3.8655261478       5.45  <-- CONV
        O_D=      0.0219149 O_OD=      0.0067622 O_TOT=      3.8655261 <-- SPRD
 Delta: O_D=  0.1300349E-13 O_OD= -0.1831148E-12 O_TOT= -0.1700862E-12 <-- DLTA
 ------------------------------------------------------------------------------
 Cycle:     51
  WF centre and spread    1  ( -0.000000,  0.000000,  0.000000 )     0.96971775
  WF centre and spread    2  ( -0.000000,  1.413089,  0.000000 )     0.96304447
  WF centre and spread    3  (  0.000000,  1.413089,  3.325396 )     0.96304426
  WF centre and spread    4  (  1.223770,  0.706544,  3.325396 )     0.96971842
  Sum of centres and spreads (  1.223770,  3.532722,  6.650792 )     3.86552490
 
     51    -0.258E-12     0.0000033100        3.8655261478       5.46  <-- CONV
        O_D=      0.0219149 O_OD=      0.0067622 O_TOT=      3.8655261 <-- SPRD
 Delta: O_D=  0.1928319E-13 O_OD= -0.2776876E-12 O_TOT= -0.2580158E-12 <-- DLTA
 ------------------------------------------------------------------------------
 Cycle:     52
[...]
  WF centre and spread    4  (  1.223770,  0.706544,  3.325396 )     0.96971959
  Sum of centres and spreads (  1.223770,  3.532722,  6.650792 )     3.86552490
 
    177    -0.990E-13     0.0000020110        3.8655261476       6.55  <-- CONV
        O_D=      0.0219149 O_OD=      0.0067622 O_TOT=      3.8655261 <-- SPRD
 Delta: O_D= -0.6721707E-13 O_OD= -0.3165350E-13 O_TOT= -0.9903189E-13 <-- DLTA
 ------------------------------------------------------------------------------
 Cycle:    178
  WF centre and spread    1  ( -0.000000,  0.000000,  0.000000 )     0.96971891
  WF centre and spread    2  ( -0.000000,  1.413089,  0.000000 )     0.96304331
  WF centre and spread    3  (  0.000000,  1.413089,  3.325396 )     0.96304309
  WF centre and spread    4  (  1.223770,  0.706544,  3.325396 )     0.96971959
  Sum of centres and spreads (  1.223770,  3.532722,  6.650792 )     3.86552490
 
    178    -0.132E-12     0.0000020106        3.8655261476       6.56  <-- CONV
        O_D=      0.0219149 O_OD=      0.0067622 O_TOT=      3.8655261 <-- SPRD
 Delta: O_D= -0.9005990E-13 O_OD= -0.4201240E-13 O_TOT= -0.1323386E-12 <-- DLTA
 ------------------------------------------------------------------------------
 Cycle:    179
  WF centre and spread    1  ( -0.000000,  0.000000,  0.000000 )     0.96971891
  WF centre and spread    2  ( -0.000000,  1.413089,  0.000000 )     0.96304330
  WF centre and spread    3  (  0.000000,  1.413089,  3.325396 )     0.96304309
  WF centre and spread    4  (  1.223770,  0.706544,  3.325396 )     0.96971959
  Sum of centres and spreads (  1.223770,  3.532722,  6.650792 )     3.86552490
 
    179    -0.164E-12     0.0000020102        3.8655261476       6.57  <-- CONV
        O_D=      0.0219149 O_OD=      0.0067622 O_TOT=      3.8655261 <-- SPRD
 Delta: O_D= -0.1122505E-12 O_OD= -0.5231319E-13 O_TOT= -0.1643130E-12 <-- DLTA
 ------------------------------------------------------------------------------
 Cycle:    180
  WF centre and spread    1  ( -0.000000,  0.000000,  0.000000 )     0.96971892
  WF centre and spread    2  ( -0.000000,  1.413089,  0.000000 )     0.96304330
  WF centre and spread    3  (  0.000000,  1.413089,  3.325396 )     0.96304309
  WF centre and spread    4  (  1.223770,  0.706544,  3.325396 )     0.96971959
  Sum of centres and spreads (  1.223770,  3.532722,  6.650792 )     3.86552490
 
    180    -0.198E-12     0.0000020097        3.8655261476       6.58  <-- CONV
        O_D=      0.0219149 O_OD=      0.0067622 O_TOT=      3.8655261 <-- SPRD
 Delta: O_D= -0.1347082E-12 O_OD= -0.6296439E-13 O_TOT= -0.1980638E-12 <-- DLTA
 ------------------------------------------------------------------------------
 Cycle:    181
  WF centre and spread    1  ( -0.000000,  0.000000,  0.000000 )     0.96971892
  WF centre and spread    2  ( -0.000000,  1.413089,  0.000000 )     0.96304330
  WF centre and spread    3  (  0.000000,  1.413089,  3.325396 )     0.96304308
  WF centre and spread    4  (  1.223770,  0.706544,  3.325396 )     0.96971960
  Sum of centres and spreads (  1.223770,  3.532722,  6.650792 )     3.86552490
 
    181    -0.570E-12     0.0000020090        3.8655261476       6.59  <-- CONV
        O_D=      0.0219149 O_OD=      0.0067622 O_TOT=      3.8655261 <-- SPRD
 Delta: O_D= -0.3909720E-12 O_OD= -0.1797009E-12 O_TOT= -0.5702105E-12 <-- DLTA
 ------------------------------------------------------------------------------
 Cycle:    182
  WF centre and spread    1  ( -0.000000,  0.000000,  0.000000 )     0.96971892
  WF centre and spread    2  ( -0.000000,  1.413089,  0.000000 )     0.96304330
  WF centre and spread    3  (  0.000000,  1.413089,  3.325396 )     0.96304308
  WF centre and spread    4  (  1.223770,  0.706544,  3.325396 )     0.96971960
  Sum of centres and spreads (  1.223770,  3.532722,  6.650792 )     3.86552490
 
    182    -0.662E-13     0.0000020072        3.8655261476       6.60  <-- CONV
        O_D=      0.0219149 O_OD=      0.0067622 O_TOT=      3.8655261 <-- SPRD
 Delta: O_D= -0.4512016E-13 O_OD= -0.2061979E-13 O_TOT= -0.6616929E-13 <-- DLTA
 ------------------------------------------------------------------------------
 Cycle:    183
  WF centre and spread    1  ( -0.000000,  0.000000,  0.000000 )     0.96971892
  WF centre and spread    2  ( -0.000000,  1.413089,  0.000000 )     0.96304330
  WF centre and spread    3  (  0.000000,  1.413089,  3.325396 )     0.96304308
  WF centre and spread    4  (  1.223770,  0.706544,  3.325396 )     0.96971960
  Sum of centres and spreads (  1.223770,  3.532722,  6.650792 )     3.86552490
 
    183    -0.981E-13     0.0000020070        3.8655261476       6.61  <-- CONV
        O_D=      0.0219149 O_OD=      0.0067622 O_TOT=      3.8655261 <-- SPRD
 Delta: O_D= -0.6767850E-13 O_OD= -0.3071762E-13 O_TOT= -0.9814372E-13 <-- DLTA
 ------------------------------------------------------------------------------
 Cycle:    184
  WF centre and spread    1  ( -0.000000,  0.000000,  0.000000 )     0.96971892
  WF centre and spread    2  ( -0.000000,  1.413089,  0.000000 )     0.96304330
  WF centre and spread    3  (  0.000000,  1.413089,  3.325396 )     0.96304308
  WF centre and spread    4  (  1.223770,  0.706544,  3.325396 )     0.96971960
  Sum of centres and spreads (  1.223770,  3.532722,  6.650792 )     3.86552490
 
    184    -0.131E-12     0.0000020066        3.8655261476       6.61  <-- CONV
        O_D=      0.0219149 O_OD=      0.0067622 O_TOT=      3.8655261 <-- SPRD
 Delta: O_D= -0.9038950E-13 O_OD= -0.4111468E-13 O_TOT= -0.1314504E-12 <-- DLTA
 ------------------------------------------------------------------------------
 Cycle:    185
  WF centre and spread    1  ( -0.000000,  0.000000,  0.000000 )     0.96971892
  WF centre and spread    2  ( -0.000000,  1.413089,  0.000000 )     0.96304330
  WF centre and spread    3  (  0.000000,  1.413089,  3.325396 )     0.96304308
  WF centre and spread    4  (  1.223770,  0.706544,  3.325396 )     0.96971960
  Sum of centres and spreads (  1.223770,  3.532722,  6.650792 )     3.86552490
 
    185    -0.164E-12     0.0000020062        3.8655261476       6.62  <-- CONV
        O_D=      0.0219149 O_OD=      0.0067622 O_TOT=      3.8655261 <-- SPRD
 Delta: O_D= -0.1126807E-12 O_OD= -0.5114572E-13 O_TOT= -0.1638689E-12 <-- DLTA
 ------------------------------------------------------------------------------
 Cycle:    186
  WF centre and spread    1  ( -0.000000,  0.000000,  0.000000 )     0.96971892
  WF centre and spread    2  ( -0.000000,  1.413089,  0.000000 )     0.96304330
  WF centre and spread    3  (  0.000000,  1.413089,  3.325396 )     0.96304308
  WF centre and spread    4  (  1.223770,  0.706544,  3.325396 )     0.96971960
  Sum of centres and spreads (  1.223770,  3.532722,  6.650792 )     3.86552490
 
    186    -0.197E-12     0.0000020057        3.8655261476       6.63  <-- CONV
        O_D=      0.0219149 O_OD=      0.0067622 O_TOT=      3.8655261 <-- SPRD
 Delta: O_D= -0.1354229E-12 O_OD= -0.6146993E-13 O_TOT= -0.1967315E-12 <-- DLTA
 ------------------------------------------------------------------------------
 Cycle:    187
  WF centre and spread    1  ( -0.000000,  0.000000,  0.000000 )     0.96971892
  WF centre and spread    2  ( -0.000000,  1.413089,  0.000000 )     0.96304330
  WF centre and spread    3  (  0.000000,  1.413089,  3.325396 )     0.96304308
  WF centre and spread    4  (  1.223770,  0.706544,  3.325396 )     0.96971960
  Sum of centres and spreads (  1.223770,  3.532722,  6.650792 )     3.86552490
 
    187    -0.329E-13     0.0000020051        3.8655261476       6.64  <-- CONV
        O_D=      0.0219149 O_OD=      0.0067622 O_TOT=      3.8655261 <-- SPRD
 Delta: O_D= -0.2266243E-13 O_OD= -0.1007874E-13 O_TOT= -0.3286260E-13 <-- DLTA
 ------------------------------------------------------------------------------
 Cycle:    188
  WF centre and spread    1  ( -0.000000,  0.000000,  0.000000 )     0.96971892
  WF centre and spread    2  ( -0.000000,  1.413089,  0.000000 )     0.96304330
  WF centre and spread    3  (  0.000000,  1.413089,  3.325396 )     0.96304308
  WF centre and spread    4  (  1.223770,  0.706544,  3.325396 )     0.96971960
  Sum of centres and spreads (  1.223770,  3.532722,  6.650792 )     3.86552490
 
    188    -0.653E-13     0.0000020050        3.8655261476       6.65  <-- CONV
        O_D=      0.0219149 O_OD=      0.0067622 O_TOT=      3.8655261 <-- SPRD
 Delta: O_D= -0.4532832E-13 O_OD= -0.2031101E-13 O_TOT= -0.6528111E-13 <-- DLTA
 ------------------------------------------------------------------------------
 Cycle:    189
  WF centre and spread    1  ( -0.000000,  0.000000,  0.000000 )     0.96971892
  WF centre and spread    2  ( -0.000000,  1.413089,  0.000000 )     0.96304329
  WF centre and spread    3  (  0.000000,  1.413089,  3.325396 )     0.96304308
  WF centre and spread    4  (  1.223770,  0.706544,  3.325396 )     0.96971960
  Sum of centres and spreads (  1.223770,  3.532722,  6.650792 )     3.86552490
 
    189    -0.986E-13     0.0000020048        3.8655261476       6.65  <-- CONV
        O_D=      0.0219149 O_OD=      0.0067622 O_TOT=      3.8655261 <-- SPRD
 Delta: O_D= -0.6796994E-13 O_OD= -0.3041144E-13 O_TOT= -0.9858780E-13 <-- DLTA
 ------------------------------------------------------------------------------
 Cycle:    190
  WF centre and spread    1  ( -0.000000,  0.000000,  0.000000 )     0.96971893
  WF centre and spread    2  ( -0.000000,  1.413089,  0.000000 )     0.96304329
  WF centre and spread    3  (  0.000000,  1.413089,  3.325396 )     0.96304308
  WF centre and spread    4  (  1.223770,  0.706544,  3.325396 )     0.96971960
  Sum of centres and spreads (  1.223770,  3.532722,  6.650792 )     3.86552490
 
    190    -0.131E-12     0.0000020044        3.8655261476       6.66  <-- CONV
        O_D=      0.0219149 O_OD=      0.0067622 O_TOT=      3.8655261 <-- SPRD
 Delta: O_D= -0.9049705E-13 O_OD= -0.4040518E-13 O_TOT= -0.1310063E-12 <-- DLTA
 ------------------------------------------------------------------------------
 Cycle:    191
  WF centre and spread    1  ( -0.000000,  0.000000,  0.000000 )     0.96971893
  WF centre and spread    2  ( -0.000000,  1.413089,  0.000000 )     0.96304329
  WF centre and spread    3  (  0.000000,  1.413089,  3.325396 )     0.96304307
  WF centre and spread    4  (  1.223770,  0.706544,  3.325396 )     0.96971961
  Sum of centres and spreads (  1.223770,  3.532722,  6.650792 )     3.86552490
 
    191    -0.164E-12     0.0000020040        3.8655261476       6.67  <-- CONV
        O_D=      0.0219149 O_OD=      0.0067622 O_TOT=      3.8655261 <-- SPRD
 Delta: O_D= -0.1133191E-12 O_OD= -0.5047178E-13 O_TOT= -0.1638689E-12 <-- DLTA
 ------------------------------------------------------------------------------
 Cycle:    192
  WF centre and spread    1  ( -0.000000,  0.000000,  0.000000 )     0.96971893
  WF centre and spread    2  ( -0.000000,  1.413089,  0.000000 )     0.96304329
  WF centre and spread    3  (  0.000000,  1.413089,  3.325396 )     0.96304307
  WF centre and spread    4  (  1.223770,  0.706544,  3.325396 )     0.96971961
  Sum of centres and spreads (  1.223770,  3.532722,  6.650792 )     3.86552490
 
    192    -0.196E-12     0.0000020035        3.8655261476       6.68  <-- CONV
        O_D=      0.0219149 O_OD=      0.0067622 O_TOT=      3.8655261 <-- SPRD
 Delta: O_D= -0.1356693E-12 O_OD= -0.6046379E-13 O_TOT= -0.1962874E-12 <-- DLTA
 ------------------------------------------------------------------------------
 Cycle:    193
  WF centre and spread    1  ( -0.000000,  0.000000,  0.000000 )     0.96971893
  WF centre and spread    2  ( -0.000000,  1.413089,  0.000000 )     0.96304329
  WF centre and spread    3  (  0.000000,  1.413089,  3.325396 )     0.96304307
  WF centre and spread    4  (  1.223770,  0.706544,  3.325396 )     0.96971961
  Sum of centres and spreads (  1.223770,  3.532722,  6.650792 )     3.86552490
 
    193    -0.329E-13     0.0000020029        3.8655261476       6.69  <-- CONV
        O_D=      0.0219149 O_OD=      0.0067622 O_TOT=      3.8655261 <-- SPRD
 Delta: O_D= -0.2292264E-13 O_OD= -0.1015160E-13 O_TOT= -0.3286260E-13 <-- DLTA
 ------------------------------------------------------------------------------
 Cycle:    194
  WF centre and spread    1  ( -0.000000,  0.000000,  0.000000 )     0.96971893
  WF centre and spread    2  ( -0.000000,  1.413089,  0.000000 )     0.96304329
  WF centre and spread    3  (  0.000000,  1.413089,  3.325396 )     0.96304307
  WF centre and spread    4  (  1.223770,  0.706544,  3.325396 )     0.96971961
  Sum of centres and spreads (  1.223770,  3.532722,  6.650792 )     3.86552490
 
    194    -0.648E-13     0.0000020028        3.8655261476       6.69  <-- CONV
        O_D=      0.0219149 O_OD=      0.0067622 O_TOT=      3.8655261 <-- SPRD
 Delta: O_D= -0.4526240E-13 O_OD= -0.1987906E-13 O_TOT= -0.6483702E-13 <-- DLTA
 ------------------------------------------------------------------------------
 Cycle:    195
  WF centre and spread    1  ( -0.000000,  0.000000,  0.000000 )     0.96971893
  WF centre and spread    2  ( -0.000000,  1.413089,  0.000000 )     0.96304329
  WF centre and spread    3  (  0.000000,  1.413089,  3.325396 )     0.96304307
  WF centre and spread    4  (  1.223770,  0.706544,  3.325396 )     0.96971961
  Sum of centres and spreads (  1.223770,  3.532722,  6.650792 )     3.86552490
 
    195    -0.986E-13     0.0000020026        3.8655261476       6.70  <-- CONV
        O_D=      0.0219149 O_OD=      0.0067622 O_TOT=      3.8655261 <-- SPRD
 Delta: O_D= -0.6803239E-13 O_OD= -0.3005495E-13 O_TOT= -0.9858780E-13 <-- DLTA
 ------------------------------------------------------------------------------
 Cycle:    196
  WF centre and spread    1  ( -0.000000,  0.000000,  0.000000 )     0.96971893
  WF centre and spread    2  ( -0.000000,  1.413089,  0.000000 )     0.96304329
  WF centre and spread    3  (  0.000000,  1.413089,  3.325396 )     0.96304307
  WF centre and spread    4  (  1.223770,  0.706544,  3.325396 )     0.96971961
  Sum of centres and spreads (  1.223770,  3.532722,  6.650792 )     3.86552490
 
    196    -0.131E-12     0.0000020023        3.8655261476       6.71  <-- CONV
        O_D=      0.0219149 O_OD=      0.0067622 O_TOT=      3.8655261 <-- SPRD
 Delta: O_D= -0.9088563E-13 O_OD= -0.3998885E-13 O_TOT= -0.1305622E-12 <-- DLTA
 ------------------------------------------------------------------------------
 Cycle:    197
  WF centre and spread    1  ( -0.000000,  0.000000,  0.000000 )     0.96971893
  WF centre and spread    2  ( -0.000000,  1.413089,  0.000000 )     0.96304329
  WF centre and spread    3  (  0.000000,  1.413089,  3.325396 )     0.96304307
  WF centre and spread    4  (  1.223770,  0.706544,  3.325396 )     0.96971961
  Sum of centres and spreads (  1.223770,  3.532722,  6.650792 )     3.86552490
 
    197    -0.163E-12     0.0000020019        3.8655261476       6.72  <-- CONV
        O_D=      0.0219149 O_OD=      0.0067622 O_TOT=      3.8655261 <-- SPRD
 Delta: O_D= -0.1134474E-12 O_OD= -0.4990626E-13 O_TOT= -0.1634248E-12 <-- DLTA
 ------------------------------------------------------------------------------
 Cycle:    198
  WF centre and spread    1  ( -0.000000,  0.000000,  0.000000 )     0.96971893
  WF centre and spread    2  ( -0.000000,  1.413089,  0.000000 )     0.96304329
  WF centre and spread    3  (  0.000000,  1.413089,  3.325396 )     0.96304307
  WF centre and spread    4  (  1.223770,  0.706544,  3.325396 )     0.96971961
  Sum of centres and spreads (  1.223770,  3.532722,  6.650792 )     3.86552490
 
    198    -0.196E-12     0.0000020013        3.8655261476       6.72  <-- CONV
        O_D=      0.0219149 O_OD=      0.0067622 O_TOT=      3.8655261 <-- SPRD
 Delta: O_D= -0.1363944E-12 O_OD= -0.5971352E-13 O_TOT= -0.1962874E-12 <-- DLTA
 ------------------------------------------------------------------------------
 Cycle:    199
  WF centre and spread    1  ( -0.000000,  0.000000,  0.000000 )     0.96971893
  WF centre and spread    2  ( -0.000000,  1.413089,  0.000000 )     0.96304329
  WF centre and spread    3  (  0.000000,  1.413089,  3.325396 )     0.96304307
  WF centre and spread    4  (  1.223770,  0.706544,  3.325396 )     0.96971961
  Sum of centres and spreads (  1.223770,  3.532722,  6.650792 )     3.86552490
 
    199    -0.324E-13     0.0000020007        3.8655261476       6.73  <-- CONV
        O_D=      0.0219149 O_OD=      0.0067622 O_TOT=      3.8655261 <-- SPRD
 Delta: O_D= -0.2255487E-13 O_OD= -0.1001022E-13 O_TOT= -0.3241851E-13 <-- DLTA
 ------------------------------------------------------------------------------
 Cycle:    200
  WF centre and spread    1  ( -0.000000,  0.000000,  0.000000 )     0.96971893
  WF centre and spread    2  ( -0.000000,  1.413089,  0.000000 )     0.96304329
  WF centre and spread    3  (  0.000000,  1.413089,  3.325396 )     0.96304307
  WF centre and spread    4  (  1.223770,  0.706544,  3.325396 )     0.96971961
  Sum of centres and spreads (  1.223770,  3.532722,  6.650792 )     3.86552490
 
    200    -0.653E-13     0.0000020006        3.8655261476       6.74  <-- CONV
        O_D=      0.0219149 O_OD=      0.0067622 O_TOT=      3.8655261 <-- SPRD
 Delta: O_D= -0.4547057E-13 O_OD= -0.1978192E-13 O_TOT= -0.6528111E-13 <-- DLTA
 ------------------------------------------------------------------------------

 Writing checkpoint file graphite.chk... done

 Final State
  WF centre and spread    1  ( -0.000000,  0.000000,  0.000000 )     0.96971893
  WF centre and spread    2  ( -0.000000,  1.413089,  0.000000 )     0.96304329
  WF centre and spread    3  (  0.000000,  1.413089,  3.325396 )     0.96304307
  WF centre and spread    4  (  1.223770,  0.706544,  3.325396 )     0.96971961
  Sum of centres and spreads (  1.223770,  3.532722,  6.650792 )     3.86552490
 
         Spreads (Ang^2)       Omega I      =     3.836849087
        ================       Omega D      =     0.021914879
                               Omega OD     =     0.006762182
    Final Spread (Ang^2)       Omega Total  =     3.865526148
 ------------------------------------------------------------------------------

 Wannier centres written to file graphite_centres.xyz
 
 On-site Hamiltonian matrix elements
     n        <0n|H|0n> (eV)
   -------------------------
     1         7.364872
     2         7.353908
     3         7.353908
     4         7.364872
 
 Time for wannierise            2.029 (sec)

 Writing checkpoint file graphite.chk... done

 *---------------------------------------------------------------------------*
 |                               PLOTTING                                    |
 *---------------------------------------------------------------------------*
 
 
 Calculating interpolated band-structure
 
 Time to calculate interpolated band structure       0.342 (sec)
 
 Time for plotting              3.511 (sec)
 Total Execution Time          11.313 (sec)

 *===========================================================================*
 |                             TIMING INFORMATION                            |
 *===========================================================================*
 |    Tag                                                Ncalls      Time (s)|
 |---------------------------------------------------------------------------|
 |kmesh: get                                        :         1         0.266|
 |overlap: allocate                                 :         1         0.000|
 |overlap: read                                     :         1         0.656|
 |dis: main                                         :         1         4.807|
 |wann: main                                        :         1         2.029|
 |plot: main                                        :         1         3.511|
 *---------------------------------------------------------------------------*
 
 All done: wannier90 exiting
