<?xml version="1.0" encoding="ISO-8859-1"?>
<modeling>
 <generator>
  <i name="program" type="string">vasp </i>
  <i name="version" type="string">5.4.4.18Apr17-6-g9f103f2a35  </i>
  <i name="subversion" type="string">(build Sep 07 2021 20:00:30) complex            parallel </i>
  <i name="platform" type="string">LinuxIFC </i>
  <i name="date" type="string">2021 11 07 </i>
  <i name="time" type="string">21:44:05 </i>
 </generator>
 <incar>
  <i type="int" name="ISTART">     1</i>
  <i type="string" name="PREC">accurate</i>
  <i type="int" name="ICHARG">    11</i>
  <i name="EDIFF">      0.00000001</i>
  <i name="ENCUT">    520.00000000</i>
  <i type="int" name="NBANDS">    20</i>
  <i type="int" name="ISMEAR">     0</i>
  <i name="SIGMA">      0.10000000</i>
  <i type="logical" name="LWAVE"> F  </i>
  <i type="logical" name="LCHARG"> F  </i>
  <v type="int" name="KPOINT_BSE">    -1     0     0     0</v>
  <i type="logical" name="LWANNIER90"> T  </i>
 </incar>
 <structure name="primitive_cell" >
  <crystal>
   <varray name="basis" >
    <v>       2.44726050       0.00000000       0.00000000 </v>
    <v>      -1.22363025       2.11938976       0.00000000 </v>
    <v>       0.00000000       0.00000000      20.00000000 </v>
   </varray>
   <i name="volume">    103.73397685 </i>
   <varray name="rec_basis" >
    <v>       0.40862017       0.23591696       0.00000000 </v>
    <v>       0.00000000       0.47183393       0.00000000 </v>
    <v>       0.00000000       0.00000000       0.05000000 </v>
   </varray>
  </crystal>
  <varray name="positions" >
   <v>       0.00000000       0.00000000      -0.50000000 </v>
   <v>      -0.33333333       0.33333333      -0.50000000 </v>
  </varray>
 </structure>
 <varray name="primitive_index" >
  <v type="int" >        1 </v>
  <v type="int" >        2 </v>
 </varray>
 <kpoints>
  <generation param="Monkhorst-Pack">
   <v type="int" name="divisions">      15       15        1 </v>
   <v name="usershift">      0.00000000       0.00000000       0.00000000 </v>
   <v name="genvec1">      0.06666667       0.00000000       0.00000000 </v>
   <v name="genvec2">      0.00000000       0.06666667       0.00000000 </v>
   <v name="genvec3">      0.00000000       0.00000000       1.00000000 </v>
   <v name="shift">      0.00000000       0.00000000       0.00000000 </v>
  </generation>
  <varray name="kpointlist" >
   <v>       0.00000000       0.00000000       0.00000000 </v>
   <v>       0.06666667      -0.00000000       0.00000000 </v>
   <v>       0.13333333       0.00000000       0.00000000 </v>
   <v>       0.20000000       0.00000000       0.00000000 </v>
   <v>       0.26666667      -0.00000000       0.00000000 </v>
   <v>       0.33333333       0.00000000       0.00000000 </v>
   <v>       0.40000000       0.00000000       0.00000000 </v>
   <v>       0.46666667      -0.00000000       0.00000000 </v>
   <v>       0.06666667       0.06666667       0.00000000 </v>
   <v>       0.13333333       0.06666667       0.00000000 </v>
   <v>       0.20000000       0.06666667       0.00000000 </v>
   <v>       0.26666667       0.06666667       0.00000000 </v>
   <v>       0.33333333       0.06666667       0.00000000 </v>
   <v>       0.40000000       0.06666667       0.00000000 </v>
   <v>       0.46666667       0.06666667       0.00000000 </v>
   <v>       0.13333333       0.13333333       0.00000000 </v>
   <v>       0.20000000       0.13333333       0.00000000 </v>
   <v>       0.26666667       0.13333333       0.00000000 </v>
   <v>       0.33333333       0.13333333       0.00000000 </v>
   <v>       0.40000000       0.13333333       0.00000000 </v>
   <v>       0.20000000       0.20000000       0.00000000 </v>
   <v>       0.26666667       0.20000000       0.00000000 </v>
   <v>       0.33333333       0.20000000       0.00000000 </v>
   <v>       0.40000000       0.20000000       0.00000000 </v>
   <v>       0.26666667       0.26666667       0.00000000 </v>
   <v>       0.33333333       0.26666667       0.00000000 </v>
   <v>       0.33333333       0.33333333       0.00000000 </v>
  </varray>
  <varray name="weights" >
   <v>       0.00444444 </v>
   <v>       0.02666667 </v>
   <v>       0.02666667 </v>
   <v>       0.02666667 </v>
   <v>       0.02666667 </v>
   <v>       0.02666667 </v>
   <v>       0.02666667 </v>
   <v>       0.02666667 </v>
   <v>       0.02666667 </v>
   <v>       0.05333333 </v>
   <v>       0.05333333 </v>
   <v>       0.05333333 </v>
   <v>       0.05333333 </v>
   <v>       0.05333333 </v>
   <v>       0.02666667 </v>
   <v>       0.02666667 </v>
   <v>       0.05333333 </v>
   <v>       0.05333333 </v>
   <v>       0.05333333 </v>
   <v>       0.05333333 </v>
   <v>       0.02666667 </v>
   <v>       0.05333333 </v>
   <v>       0.05333333 </v>
   <v>       0.02666667 </v>
   <v>       0.02666667 </v>
   <v>       0.05333333 </v>
   <v>       0.00888889 </v>
  </varray>
 </kpoints>
 <parameters>
  <separator name="general" >
   <i type="string" name="SYSTEM">unknown system</i>
   <i type="logical" name="LCOMPAT"> F  </i>
  </separator>
  <separator name="electronic" >
   <i type="string" name="PREC">accura</i>
   <i name="ENMAX">    520.00000000</i>
   <i name="ENAUG">    644.87300000</i>
   <i name="EDIFF">      0.00000001</i>
   <i type="int" name="IALGO">    38</i>
   <i type="int" name="IWAVPR">    10</i>
   <i type="int" name="NBANDS">    20</i>
   <i name="NELECT">      8.00000000</i>
   <i type="int" name="TURBO">     0</i>
   <i type="int" name="IRESTART">     0</i>
   <i type="int" name="NREBOOT">     0</i>
   <i type="int" name="NMIN">     0</i>
   <i name="EREF">      0.00000000</i>
   <separator name="electronic smearing" >
    <i type="int" name="ISMEAR">     0</i>
    <i name="SIGMA">      0.10000000</i>
    <i name="KSPACING">      0.50000000</i>
    <i type="logical" name="KGAMMA"> T  </i>
   </separator>
   <separator name="electronic projectors" >
    <i type="logical" name="LREAL"> F  </i>
    <v name="ROPT">      0.00000000</v>
    <i type="int" name="LMAXPAW">  -100</i>
    <i type="int" name="LMAXMIX">     2</i>
    <i type="logical" name="NLSPLINE"> F  </i>
   </separator>
   <separator name="electronic startup" >
    <i type="int" name="ISTART">     1</i>
    <i type="int" name="ICHARG">    11</i>
    <i type="int" name="INIWAV">     1</i>
   </separator>
   <separator name="electronic spin" >
    <i type="int" name="ISPIN">     1</i>
    <i type="logical" name="LNONCOLLINEAR"> F  </i>
    <v name="MAGMOM">      1.00000000      1.00000000</v>
    <i name="NUPDOWN">     -1.00000000</i>
    <i type="logical" name="LSORBIT"> F  </i>
    <v name="SAXIS">      0.00000000      0.00000000      1.00000000</v>
    <i type="logical" name="LSPIRAL"> F  </i>
    <v name="QSPIRAL">      0.00000000      0.00000000      0.00000000</v>
    <i type="logical" name="LZEROZ"> F  </i>
   </separator>
   <separator name="electronic exchange-correlation" >
    <i type="logical" name="LASPH"> F  </i>
    <i type="logical" name="LMETAGGA"> F  </i>
   </separator>
   <separator name="electronic convergence" >
    <i type="int" name="NELM">    60</i>
    <i type="int" name="NELMDL">     0</i>
    <i type="int" name="NELMIN">     2</i>
    <i name="ENINI">    520.00000000</i>
    <separator name="electronic convergence detail" >
     <i type="logical" name="LDIAG"> T  </i>
     <i type="logical" name="LSUBROT"> F  </i>
     <i name="WEIMIN">      0.00000000</i>
     <i name="EBREAK">      0.00000000</i>
     <i name="DEPER">      0.30000000</i>
     <i type="int" name="NRMM">     4</i>
     <i name="TIME">      0.40000000</i>
    </separator>
   </separator>
   <separator name="electronic mixer" >
    <i name="AMIX">      0.40000000</i>
    <i name="BMIX">      1.00000000</i>
    <i name="AMIN">      0.10000000</i>
    <i name="AMIX_MAG">      1.60000000</i>
    <i name="BMIX_MAG">      1.00000000</i>
    <separator name="electronic mixer details" >
     <i type="int" name="IMIX">     4</i>
     <i type="logical" name="MIXFIRST"> F  </i>
     <i type="int" name="MAXMIX">   -45</i>
     <i name="WC">    100.00000000</i>
     <i type="int" name="INIMIX">     1</i>
     <i type="int" name="MIXPRE">     1</i>
     <i type="int" name="MREMOVE">     5</i>
    </separator>
   </separator>
   <separator name="electronic dipolcorrection" >
    <i type="logical" name="LDIPOL"> F  </i>
    <i type="logical" name="LMONO"> F  </i>
    <i type="int" name="IDIPOL">     0</i>
    <i name="EPSILON">      1.00000000</i>
    <v name="DIPOL">   -100.00000000   -100.00000000   -100.00000000</v>
    <i name="EFIELD">      0.00000000</i>
   </separator>
  </separator>
  <separator name="grids" >
   <i type="int" name="NGX">    18</i>
   <i type="int" name="NGY">    18</i>
   <i type="int" name="NGZ">   150</i>
   <i type="int" name="NGXF">    36</i>
   <i type="int" name="NGYF">    36</i>
   <i type="int" name="NGZF">   300</i>
   <i type="logical" name="ADDGRID"> F  </i>
  </separator>
  <separator name="ionic" >
   <i type="int" name="NSW">     0</i>
   <i type="int" name="IBRION">    -1</i>
   <i type="int" name="MDALGO">     0</i>
   <i type="int" name="ISIF">     2</i>
   <i name="PSTRESS">      0.00000000</i>
   <i name="EDIFFG">      0.00000010</i>
   <i type="int" name="NFREE">     0</i>
   <i name="POTIM">      0.50000000</i>
   <i name="SMASS">     -3.00000000</i>
   <i name="SCALEE">      1.00000000</i>
  </separator>
  <separator name="ionic md" >
   <i name="TEBEG">      0.00010000</i>
   <i name="TEEND">      0.00010000</i>
   <i type="int" name="NBLOCK">     1</i>
   <i type="int" name="KBLOCK">     1</i>
   <i type="int" name="NPACO">   256</i>
   <i name="APACO">     16.00000000</i>
  </separator>
  <separator name="symmetry" >
   <i type="int" name="ISYM">     2</i>
   <i name="SYMPREC">      0.00001000</i>
  </separator>
  <separator name="dos" >
   <i type="int" name="LORBIT">     0</i>
   <v name="RWIGS">     -1.00000000</v>
   <i type="int" name="NEDOS">   301</i>
   <i name="EMIN">     10.00000000</i>
   <i name="EMAX">    -10.00000000</i>
   <i name="EFERMI">      0.00000000</i>
  </separator>
  <separator name="writing" >
   <i type="int" name="NWRITE">     2</i>
   <i type="logical" name="LWAVE"> F  </i>
   <i type="logical" name="LDOWNSAMPLE"> F  </i>
   <i type="logical" name="LCHARG"> F  </i>
   <i type="logical" name="LPARD"> F  </i>
   <i type="logical" name="LVTOT"> F  </i>
   <i type="logical" name="LVHAR"> F  </i>
   <i type="logical" name="LELF"> F  </i>
   <i type="logical" name="LOPTICS"> F  </i>
   <v name="STM">      0.00000000      0.00000000      0.00000000      0.00000000      0.00000000      0.00000000      0.00000000</v>
  </separator>
  <separator name="performance" >
   <i type="int" name="NPAR">    20</i>
   <i type="int" name="NSIM">     4</i>
   <i type="int" name="NBLK">    -1</i>
   <i type="logical" name="LPLANE"> T  </i>
   <i type="logical" name="LSCALAPACK"> T  </i>
   <i type="logical" name="LSCAAWARE"> F  </i>
   <i type="logical" name="LSCALU"> F  </i>
   <i type="logical" name="LASYNC"> F  </i>
   <i type="logical" name="LORBITALREAL"> F  </i>
  </separator>
  <separator name="miscellaneous" >
   <i type="int" name="IDIOT">     3</i>
   <i type="int" name="ISPECIAL">     0</i>
   <i type="logical" name="LMUSIC"> F  </i>
   <v name="POMASS">     12.01100000</v>
   <v name="DARWINR">      0.00000000</v>
   <v name="DARWINV">      1.00000000</v>
   <i type="logical" name="LCORR"> T  </i>
  </separator>
  <i type="logical" name="GGA_COMPAT"> T  </i>
  <i type="logical" name="LBERRY"> F  </i>
  <i type="int" name="ICORELEVEL">     0</i>
  <i type="logical" name="LDAU"> F  </i>
  <i type="int" name="I_CONSTRAINED_M">     0</i>
  <separator name="electronic exchange-correlation" >
   <i type="string" name="GGA">--</i>
   <i type="int" name="VOSKOWN">     0</i>
   <i type="logical" name="LHFCALC"> F  </i>
   <i type="string" name="PRECFOCK"></i>
   <i type="logical" name="LSYMGRAD"> F  </i>
   <i type="logical" name="LHFONE"> F  </i>
   <i type="logical" name="LRHFCALC"> F  </i>
   <i type="logical" name="LTHOMAS"> F  </i>
   <i type="logical" name="LMODELHF"> F  </i>
   <i name="ENCUT4O">     -1.00000000</i>
   <i type="int" name="EXXOEP">     0</i>
   <i type="int" name="FOURORBIT">     0</i>
   <i name="AEXX">      0.00000000</i>
   <i name="HFALPHA">      0.00000000</i>
   <i name="MCALPHA">      0.00000000</i>
   <i name="ALDAX">      1.00000000</i>
   <i name="AGGAX">      1.00000000</i>
   <i name="ALDAC">      1.00000000</i>
   <i name="AGGAC">      1.00000000</i>
   <i type="int" name="NKREDX">     1</i>
   <i type="int" name="NKREDY">     1</i>
   <i type="int" name="NKREDZ">     1</i>
   <i type="logical" name="SHIFTRED"> F  </i>
   <i type="logical" name="ODDONLY"> F  </i>
   <i type="logical" name="EVENONLY"> F  </i>
   <i type="int" name="LMAXFOCK">     0</i>
   <i type="int" name="NMAXFOCKAE">     0</i>
   <i type="logical" name="LFOCKAEDFT"> F  </i>
   <i name="HFSCREEN">      0.00000000</i>
   <i name="HFSCREENC">      0.00000000</i>
   <i type="int" name="NBANDSGWLOW">     0</i>
  </separator>
  <separator name="vdW DFT" >
   <i type="logical" name="LUSE_VDW"> F  </i>
   <i name="Zab_VDW">     -0.84910000</i>
   <i name="PARAM1">      0.12340000</i>
   <i name="PARAM2">      1.00000000</i>
   <i name="PARAM3">      0.00000000</i>
  </separator>
  <separator name="model GW" >
   <i type="int" name="MODEL_GW">     0</i>
   <i name="MODEL_EPS0">     31.12019306</i>
   <i name="MODEL_ALPHA">      1.00000000</i>
  </separator>
  <separator name="linear response parameters" >
   <i type="logical" name="LEPSILON"> F  </i>
   <i type="logical" name="LRPA"> F  </i>
   <i type="logical" name="LNABLA"> F  </i>
   <i type="logical" name="LVEL"> F  </i>
   <i type="int" name="KINTER">     0</i>
   <i name="CSHIFT">      0.10000000</i>
   <i name="OMEGAMAX">     -1.00000000</i>
   <i name="DEG_THRESHOLD">      0.00200000</i>
   <i name="RTIME">     -0.10000000</i>
   <i name="WPLASMAI">      0.00000000</i>
   <v name="DFIELD">      0.00000000      0.00000000      0.00000000</v>
   <v name="WPLASMA">      0.00000000      0.00000000      0.00000000      0.00000000      0.00000000      0.00000000      0.00000000      0.00000000      0.00000000</v>
  </separator>
  <separator name="orbital magnetization" >
   <i type="logical" name="NUCIND"> F  </i>
   <v name="MAGPOS">      0.00000000      0.00000000      0.00000000</v>
   <i type="logical" name="LNICSALL"> T  </i>
   <i type="logical" name="ORBITALMAG"> F  </i>
   <i type="logical" name="LMAGBLOCH"> F  </i>
   <i type="logical" name="LCHIMAG"> F  </i>
   <i type="logical" name="LGAUGE"> T  </i>
   <i type="int" name="MAGATOM">     0</i>
   <v name="MAGDIPOL">      0.00000000      0.00000000      0.00000000</v>
   <v name="AVECCONST">      0.00000000      0.00000000      0.00000000</v>
  </separator>
  <separator name="response functions" >
   <i type="logical" name="LADDER"> F  </i>
   <i type="logical" name="LRPAFORCE"> F  </i>
   <i type="logical" name="LFXC"> F  </i>
   <i type="logical" name="LHARTREE"> T  </i>
   <i type="int" name="IBSE">     0</i>
   <v type="int" name="KPOINT">    -1     0     0     0</v>
   <i type="logical" name="LTCTE"> F  </i>
   <i type="logical" name="LTETE"> F  </i>
   <i type="logical" name="LTRIPLET"> F  </i>
   <i type="logical" name="LFXCEPS"> F  </i>
   <i type="logical" name="LFXHEG"> F  </i>
   <i type="int" name="NATURALO">     2</i>
   <i type="logical" name="L2ORDER"> F  </i>
   <i type="logical" name="LMP2LT"> F  </i>
   <i type="logical" name="LUSEW"> F  </i>
   <i name="ENCUTGW">     -2.00000000</i>
   <i name="ENCUTGWSOFT">     -2.00000000</i>
   <i name="ENCUTLF">     -1.00000000</i>
   <i type="int" name="LMAXMP2">    -1</i>
   <i name="SCISSOR">      0.00000000</i>
   <i type="int" name="NOMEGA">     0</i>
   <i type="int" name="NOMEGAR">     0</i>
   <i type="int" name="NBANDSGW">    -1</i>
   <i type="int" name="NBANDSO">    -1</i>
   <i type="int" name="NBANDSV">    -1</i>
   <i type="int" name="NELM">     1</i>
   <i type="int" name="NELMHF">     1</i>
   <i type="int" name="DIM">     3</i>
   <i type="int" name="ANTIRES">     0</i>
   <i name="OMEGAMAX">    -30.00000000</i>
   <i name="OMEGAMIN">    -30.00000000</i>
   <i name="OMEGATL">   -200.00000000</i>
   <i type="int" name="OMEGAGRID">   140</i>
   <i name="CSHIFT">     -0.10000000</i>
   <i type="logical" name="SELFENERGY"> F  </i>
   <i type="logical" name="LSPECTRAL"> F  </i>
   <i type="logical" name="LSPECTRALGW"> F  </i>
   <i type="logical" name="LSINGLES"> F  </i>
   <i type="logical" name="LFERMIGW"> F  </i>
   <i type="logical" name="ODDONLYGW"> F  </i>
   <i type="logical" name="EVENONLYGW"> F  </i>
   <i type="int" name="NKREDLFX">     1</i>
   <i type="int" name="NKREDLFY">     1</i>
   <i type="int" name="NKREDLFZ">     1</i>
   <i type="int" name="MAXMEM">  2800</i>
   <i type="int" name="TELESCOPE">     0</i>
   <i type="int" name="TAUPAR">     1</i>
   <i type="int" name="OMEGAPAR">    -1</i>
   <i name="LAMBDA">      1.00000000</i>
  </separator>
  <separator name="External order field" >
   <i name="OFIELD_KAPPA">      0.00000000</i>
   <v name="OFIELD_K">      0.00000000      0.00000000      0.00000000</v>
   <i name="OFIELD_Q6_NEAR">      0.00000000</i>
   <i name="OFIELD_Q6_FAR">      0.00000000</i>
   <i name="OFIELD_A">      0.00000000</i>
  </separator>
 </parameters>
 <atominfo>
  <atoms>       2 </atoms>
  <types>       1 </types>
  <array name="atoms" >
   <dimension dim="1">ion</dimension>
   <field type="string">element</field>
   <field type="int">atomtype</field>
   <set>
    <rc><c>C </c><c>   1</c></rc>
    <rc><c>C </c><c>   1</c></rc>
   </set>
  </array>
  <array name="atomtypes" >
   <dimension dim="1">type</dimension>
   <field type="int">atomspertype</field>
   <field type="string">element</field>
   <field>mass</field>
   <field>valence</field>
   <field type="string">pseudopotential</field>
   <set>
    <rc><c>   2</c><c>C </c><c>     12.01100000</c><c>      4.00000000</c><c>  PAW C 22Mar2012                       </c></rc>
   </set>
  </array>
 </atominfo>
 <structure name="initialpos" >
  <crystal>
   <varray name="basis" >
    <v>       2.44726050       0.00000000       0.00000000 </v>
    <v>      -1.22363025       2.11938976       0.00000000 </v>
    <v>       0.00000000       0.00000000      20.00000000 </v>
   </varray>
   <i name="volume">    103.73397685 </i>
   <varray name="rec_basis" >
    <v>       0.40862017       0.23591696       0.00000000 </v>
    <v>       0.00000000       0.47183393       0.00000000 </v>
    <v>       0.00000000       0.00000000       0.05000000 </v>
   </varray>
  </crystal>
  <varray name="positions" >
   <v>       0.00000000       0.00000000       0.50000000 </v>
   <v>       0.66666667       0.33333333       0.50000000 </v>
  </varray>
 </structure>
 <calculation>
  <scstep>
   <time name="dav">    0.20    0.20</time>
   <time name="total">    0.21    0.21</time>
   <energy>
    <i name="alphaZ">      2.95206374 </i>
    <i name="ewald">   1318.82511921 </i>
    <i name="hartreedc">  -1565.13330621 </i>
    <i name="XCdc">     27.81697954 </i>
    <i name="pawpsdc">    857.89526321 </i>
    <i name="pawaedc">   -859.21459372 </i>
    <i name="eentropy">     -0.00100300 </i>
    <i name="bandstr">    -96.67217143 </i>
    <i name="atom">    293.35798110 </i>
    <i name="e_fr_energy">    -20.17366758 </i>
    <i name="e_wo_entrp">    -20.17266457 </i>
    <i name="e_0_energy">    -20.17316607 </i>
   </energy>
  </scstep>
  <scstep>
   <time name="dav">    0.31    0.31</time>
   <time name="total">    0.31    0.31</time>
   <energy>
    <i name="alphaZ">      2.95206374 </i>
    <i name="ewald">   1318.82511921 </i>
    <i name="hartreedc">  -1565.13330621 </i>
    <i name="XCdc">     27.81697954 </i>
    <i name="pawpsdc">    857.89526321 </i>
    <i name="pawaedc">   -859.21459372 </i>
    <i name="eentropy">     -0.00100300 </i>
    <i name="bandstr">    -96.67217143 </i>
    <i name="atom">    293.35798110 </i>
    <i name="e_fr_energy">    -20.17366758 </i>
    <i name="e_wo_entrp">    -20.17266457 </i>
    <i name="e_0_energy">    -20.17316607 </i>
   </energy>
  </scstep>
  <structure>
   <crystal>
    <varray name="basis" >
     <v>       2.44726050       0.00000000       0.00000000 </v>
     <v>      -1.22363025       2.11938976       0.00000000 </v>
     <v>       0.00000000       0.00000000      20.00000000 </v>
    </varray>
    <i name="volume">    103.73397685 </i>
    <varray name="rec_basis" >
     <v>       0.40862017       0.23591696       0.00000000 </v>
     <v>       0.00000000       0.47183393       0.00000000 </v>
     <v>       0.00000000       0.00000000       0.05000000 </v>
    </varray>
   </crystal>
   <varray name="positions" >
    <v>       0.00000000       0.00000000       0.50000000 </v>
    <v>       0.66666667       0.33333333       0.50000000 </v>
   </varray>
  </structure>
  <varray name="forces" >
   <v>       0.00000000       0.00000000       0.00000000 </v>
   <v>      -0.00000000       0.00000000       0.00000000 </v>
  </varray>
  <varray name="stress" >
   <v>      -0.13648182       0.00000000       0.00000000 </v>
   <v>      -0.00000000      -0.13648182      -0.00000000 </v>
   <v>      -0.00000000       0.00000000      -0.21882877 </v>
  </varray>
  <energy>
   <i name="e_fr_energy">    -20.17366758 </i>
   <i name="e_wo_entrp">    -20.17316607 </i>
   <i name="e_0_energy">     -0.00100300 </i>
  </energy>
  <time name="totalsc">    7.92    8.17</time>
  <eigenvalues>
   <array>
    <dimension dim="1">band</dimension>
    <dimension dim="2">kpoint</dimension>
    <dimension dim="3">spin</dimension>
    <field>eigene</field>
    <field>occ</field>
    <set>
     <set comment="spin 1">
      <set comment="kpoint 1">
       <r>  -22.4179    1.0000 </r>
       <r>  -10.7310    1.0000 </r>
       <r>   -5.9661    1.0000 </r>
       <r>   -5.9661    1.0000 </r>
       <r>    0.4030    0.0000 </r>
       <r>    1.3719    0.0000 </r>
       <r>    1.7182    0.0000 </r>
       <r>    2.6157    0.0000 </r>
       <r>    3.0516    0.0000 </r>
       <r>    4.7073    0.0000 </r>
       <r>    5.3312    0.0000 </r>
       <r>    5.4705    0.0000 </r>
       <r>    5.4891    0.0000 </r>
       <r>    7.6412    0.0000 </r>
       <r>    8.4738    0.0000 </r>
       <r>    8.7668    0.0000 </r>
       <r>   10.5133    0.0000 </r>
       <r>   11.3790    0.0000 </r>
       <r>   12.4295    0.0000 </r>
       <r>   15.9132    0.0000 </r>
      </set>
      <set comment="kpoint 2">
       <r>  -22.3121    1.0000 </r>
       <r>  -10.6029    1.0000 </r>
       <r>   -6.3829    1.0000 </r>
       <r>   -6.1931    1.0000 </r>
       <r>    0.5465    0.0000 </r>
       <r>    1.5180    0.0000 </r>
       <r>    1.8666    0.0000 </r>
       <r>    2.7625    0.0000 </r>
       <r>    3.1981    0.0000 </r>
       <r>    4.8526    0.0000 </r>
       <r>    5.4365    0.0000 </r>
       <r>    5.5663    0.0000 </r>
       <r>    5.9462    0.0000 </r>
       <r>    7.7839    0.0000 </r>
       <r>    8.3653    0.0000 </r>
       <r>    8.6213    0.0000 </r>
       <r>   10.5864    0.0000 </r>
       <r>   11.5203    0.0000 </r>
       <r>   12.5743    0.0000 </r>
       <r>   16.0724    0.0000 </r>
      </set>
      <set comment="kpoint 3">
       <r>  -21.9955    1.0000 </r>
       <r>  -10.2208    1.0000 </r>
       <r>   -7.4956    1.0000 </r>
       <r>   -6.7676    1.0000 </r>
       <r>    0.9773    0.0000 </r>
       <r>    1.9558    0.0000 </r>
       <r>    2.3118    0.0000 </r>
       <r>    3.2024    0.0000 </r>
       <r>    3.6377    0.0000 </r>
       <r>    5.2871    0.0000 </r>
       <r>    5.5420    0.0000 </r>
       <r>    5.9469    0.0000 </r>
       <r>    7.3319    0.0000 </r>
       <r>    7.4940    0.0000 </r>
       <r>    8.2128    0.0000 </r>
       <r>    9.0625    0.0000 </r>
       <r>   11.2001    0.0000 </r>
       <r>   11.9637    0.0000 </r>
       <r>   13.0249    0.0000 </r>
       <r>   16.9460    0.0000 </r>
      </set>
      <set comment="kpoint 4">
       <r>  -21.4703    1.0000 </r>
       <r>   -9.5916    1.0000 </r>
       <r>   -9.0305    1.0000 </r>
       <r>   -7.4850    1.0000 </r>
       <r>    1.6948    0.0000 </r>
       <r>    2.6821    0.0000 </r>
       <r>    3.0537    0.0000 </r>
       <r>    3.9322    0.0000 </r>
       <r>    4.3684    0.0000 </r>
       <r>    5.4684    0.0000 </r>
       <r>    5.7357    0.0000 </r>
       <r>    6.0409    0.0000 </r>
       <r>    6.6630    0.0000 </r>
       <r>    8.9200    0.0000 </r>
       <r>    9.2312    0.0000 </r>
       <r>    9.7909    0.0000 </r>
       <r>   12.3161    0.0000 </r>
       <r>   12.5934    0.0000 </r>
       <r>   13.7712    0.0000 </r>
       <r>   16.8565    0.0000 </r>
      </set>
      <set comment="kpoint 5">
       <r>  -20.7405    1.0000 </r>
       <r>  -10.7563    1.0000 </r>
       <r>   -8.7303    1.0000 </r>
       <r>   -8.1823    1.0000 </r>
       <r>    2.6965    0.0000 </r>
       <r>    3.6102    0.0000 </r>
       <r>    4.0279    0.0000 </r>
       <r>    4.0919    0.0000 </r>
       <r>    4.9784    0.0000 </r>
       <r>    5.2119    0.0000 </r>
       <r>    5.4593    0.0000 </r>
       <r>    7.0280    0.0000 </r>
       <r>    7.6795    0.0000 </r>
       <r>    9.8985    0.0000 </r>
       <r>   10.8024    0.0000 </r>
       <r>   11.5475    0.0000 </r>
       <r>   13.4585    0.0000 </r>
       <r>   13.9891    0.0000 </r>
       <r>   14.8018    0.0000 </r>
       <r>   18.1527    0.0000 </r>
      </set>
      <set comment="kpoint 6">
       <r>  -19.8130    1.0000 </r>
       <r>  -12.5212    1.0000 </r>
       <r>   -8.7619    1.0000 </r>
       <r>   -7.6696    1.0000 </r>
       <r>    2.0234    0.0000 </r>
       <r>    3.9721    0.0000 </r>
       <r>    5.0290    0.0000 </r>
       <r>    5.0409    0.0000 </r>
       <r>    5.4338    0.0000 </r>
       <r>    6.2824    0.0000 </r>
       <r>    6.7336    0.0000 </r>
       <r>    8.3134    0.0000 </r>
       <r>    8.9815    0.0000 </r>
       <r>   11.1089    0.0000 </r>
       <r>   12.0913    0.0000 </r>
       <r>   13.2551    0.0000 </r>
       <r>   13.8236    0.0000 </r>
       <r>   14.1211    0.0000 </r>
       <r>   15.8031    0.0000 </r>
       <r>   16.0504    0.0000 </r>
      </set>
      <set comment="kpoint 7">
       <r>  -18.7010    1.0000 </r>
       <r>  -14.2284    1.0000 </r>
       <r>   -9.1706    1.0000 </r>
       <r>   -6.4958    1.0000 </r>
       <r>    0.2324    0.0000 </r>
       <r>    4.8251    0.0000 </r>
       <r>    5.5774    0.0000 </r>
       <r>    6.6030    0.0000 </r>
       <r>    7.0619    0.0000 </r>
       <r>    7.8769    0.0000 </r>
       <r>    8.3416    0.0000 </r>
       <r>    9.8492    0.0000 </r>
       <r>   10.5690    0.0000 </r>
       <r>   11.6200    0.0000 </r>
       <r>   12.1831    0.0000 </r>
       <r>   13.0703    0.0000 </r>
       <r>   13.6523    0.0000 </r>
       <r>   13.8173    0.0000 </r>
       <r>   14.3478    0.0000 </r>
       <r>   15.2648    0.0000 </r>
      </set>
      <set comment="kpoint 8">
       <r>  -17.4603    1.0000 </r>
       <r>  -15.7766    1.0000 </r>
       <r>   -9.3808    1.0000 </r>
       <r>   -5.5072    1.0000 </r>
       <r>   -1.0851    0.0000 </r>
       <r>    4.7468    0.0000 </r>
       <r>    7.3796    0.0000 </r>
       <r>    8.4245    0.0000 </r>
       <r>    8.9888    0.0000 </r>
       <r>    9.4203    0.0000 </r>
       <r>    9.7185    0.0000 </r>
       <r>   10.2363    0.0000 </r>
       <r>   10.4743    0.0000 </r>
       <r>   11.2112    0.0000 </r>
       <r>   11.5892    0.0000 </r>
       <r>   11.9909    0.0000 </r>
       <r>   12.4017    0.0000 </r>
       <r>   12.4315    0.0000 </r>
       <r>   13.6990    0.0000 </r>
       <r>   14.5077    0.0000 </r>
      </set>
      <set comment="kpoint 9">
       <r>  -22.1009    1.0000 </r>
       <r>  -10.3478    1.0000 </r>
       <r>   -7.0947    1.0000 </r>
       <r>   -6.6473    1.0000 </r>
       <r>    0.8338    0.0000 </r>
       <r>    1.8100    0.0000 </r>
       <r>    2.1634    0.0000 </r>
       <r>    3.0559    0.0000 </r>
       <r>    3.4914    0.0000 </r>
       <r>    5.1426    0.0000 </r>
       <r>    5.6308    0.0000 </r>
       <r>    5.8371    0.0000 </r>
       <r>    6.6499    0.0000 </r>
       <r>    7.6195    0.0000 </r>
       <r>    8.0683    0.0000 </r>
       <r>    8.9142    0.0000 </r>
       <r>   10.9315    0.0000 </r>
       <r>   11.7885    0.0000 </r>
       <r>   12.8663    0.0000 </r>
       <r>   16.2253    0.0000 </r>
      </set>
      <set comment="kpoint 10">
       <r>  -21.6800    1.0000 </r>
       <r>   -9.8419    1.0000 </r>
       <r>   -8.3280    1.0000 </r>
       <r>   -7.3853    1.0000 </r>
       <r>    1.4084    0.0000 </r>
       <r>    2.3927    0.0000 </r>
       <r>    2.7570    0.0000 </r>
       <r>    3.6416    0.0000 </r>
       <r>    4.0778    0.0000 </r>
       <r>    5.7190    0.0000 </r>
       <r>    5.8339    0.0000 </r>
       <r>    6.3852    0.0000 </r>
       <r>    6.4148    0.0000 </r>
       <r>    7.9518    0.0000 </r>
       <r>    8.6346    0.0000 </r>
       <r>    9.4976    0.0000 </r>
       <r>   11.8787    0.0000 </r>
       <r>   12.3373    0.0000 </r>
       <r>   13.4417    0.0000 </r>
       <r>   17.0918    0.0000 </r>
      </set>
      <set comment="kpoint 11">
       <r>  -21.0526    1.0000 </r>
       <r>   -9.9007    1.0000 </r>
       <r>   -9.0955    1.0000 </r>
       <r>   -8.1512    1.0000 </r>
       <r>    2.2689    0.0000 </r>
       <r>    3.2574    0.0000 </r>
       <r>    3.6474    0.0000 </r>
       <r>    4.4910    0.0000 </r>
       <r>    4.7703    0.0000 </r>
       <r>    4.9533    0.0000 </r>
       <r>    5.7949    0.0000 </r>
       <r>    6.5903    0.0000 </r>
       <r>    7.2437    0.0000 </r>
       <r>    9.4713    0.0000 </r>
       <r>    9.5691    0.0000 </r>
       <r>   10.3671    0.0000 </r>
       <r>   13.0075    0.0000 </r>
       <r>   13.0663    0.0000 </r>
       <r>   14.3012    0.0000 </r>
       <r>   16.4695    0.0000 </r>
      </set>
      <set comment="kpoint 12">
       <r>  -20.2239    1.0000 </r>
       <r>  -11.6167    1.0000 </r>
       <r>   -8.8189    1.0000 </r>
       <r>   -8.1303    1.0000 </r>
       <r>    2.8863    0.0000 </r>
       <r>    3.4113    0.0000 </r>
       <r>    4.4476    0.0000 </r>
       <r>    4.8333    0.0000 </r>
       <r>    5.5842    0.0000 </r>
       <r>    5.6944    0.0000 </r>
       <r>    6.1580    0.0000 </r>
       <r>    7.7333    0.0000 </r>
       <r>    8.4017    0.0000 </r>
       <r>   10.5515    0.0000 </r>
       <r>   11.3785    0.0000 </r>
       <r>   11.5482    0.0000 </r>
       <r>   13.7528    0.0000 </r>
       <r>   14.1985    0.0000 </r>
       <r>   15.4239    0.0000 </r>
       <r>   15.6435    0.0000 </r>
      </set>
      <set comment="kpoint 13">
       <r>  -19.2035    1.0000 </r>
       <r>  -13.3389    1.0000 </r>
       <r>   -9.3265    1.0000 </r>
       <r>   -6.9968    1.0000 </r>
       <r>    1.0591    0.0000 </r>
       <r>    4.8141    0.0000 </r>
       <r>    5.4172    0.0000 </r>
       <r>    5.8756    0.0000 </r>
       <r>    6.3211    0.0000 </r>
       <r>    7.1442    0.0000 </r>
       <r>    7.6108    0.0000 </r>
       <r>    9.1341    0.0000 </r>
       <r>    9.8497    0.0000 </r>
       <r>   11.7297    0.0000 </r>
       <r>   12.3551    0.0000 </r>
       <r>   12.9971    0.0000 </r>
       <r>   13.4572    0.0000 </r>
       <r>   14.8386    0.0000 </r>
       <r>   15.3386    0.0000 </r>
       <r>   15.7994    0.0000 </r>
      </set>
      <set comment="kpoint 14">
       <r>  -18.0145    1.0000 </r>
       <r>  -14.9728    1.0000 </r>
       <r>   -9.6415    1.0000 </r>
       <r>   -5.8480    1.0000 </r>
       <r>   -0.5486    0.0000 </r>
       <r>    5.2391    0.0000 </r>
       <r>    6.5465    0.0000 </r>
       <r>    7.5645    0.0000 </r>
       <r>    8.0995    0.0000 </r>
       <r>    8.8597    0.0000 </r>
       <r>    9.3617    0.0000 </r>
       <r>   10.5602    0.0000 </r>
       <r>   10.6396    0.0000 </r>
       <r>   11.5734    0.0000 </r>
       <r>   11.6119    0.0000 </r>
       <r>   12.5662    0.0000 </r>
       <r>   12.9581    0.0000 </r>
       <r>   13.6404    0.0000 </r>
       <r>   13.8399    0.0000 </r>
       <r>   14.6123    0.0000 </r>
      </set>
      <set comment="kpoint 15">
       <r>  -16.9783    1.0000 </r>
       <r>  -16.1610    1.0000 </r>
       <r>   -9.7482    1.0000 </r>
       <r>   -5.2372    1.0000 </r>
       <r>   -1.3189    0.0000 </r>
       <r>    5.1958    0.0000 </r>
       <r>    8.4205    0.0000 </r>
       <r>    8.5204    0.0000 </r>
       <r>    9.2133    0.0000 </r>
       <r>    9.6924    0.0000 </r>
       <r>   10.1706    0.0000 </r>
       <r>   10.1758    0.0000 </r>
       <r>   10.7215    0.0000 </r>
       <r>   11.0048    0.0000 </r>
       <r>   11.3800    0.0000 </r>
       <r>   11.3985    0.0000 </r>
       <r>   12.3025    0.0000 </r>
       <r>   13.0919    0.0000 </r>
       <r>   13.5114    0.0000 </r>
       <r>   13.5538    0.0000 </r>
      </set>
      <set comment="kpoint 16">
       <r>  -21.1569    1.0000 </r>
       <r>   -9.4075    1.0000 </r>
       <r>   -9.2181    1.0000 </r>
       <r>   -8.3649    1.0000 </r>
       <r>    2.1266    0.0000 </r>
       <r>    3.1181    0.0000 </r>
       <r>    3.4992    0.0000 </r>
       <r>    4.3719    0.0000 </r>
       <r>    4.8121    0.0000 </r>
       <r>    5.0398    0.0000 </r>
       <r>    6.4381    0.0000 </r>
       <r>    6.4844    0.0000 </r>
       <r>    7.1200    0.0000 </r>
       <r>    8.9228    0.0000 </r>
       <r>    9.3254    0.0000 </r>
       <r>   10.2259    0.0000 </r>
       <r>   12.9524    0.0000 </r>
       <r>   14.1534    0.0000 </r>
       <r>   16.3248    0.0000 </r>
       <r>   17.9760    0.0000 </r>
      </set>
      <set comment="kpoint 17">
       <r>  -20.4306    1.0000 </r>
       <r>  -10.7939    1.0000 </r>
       <r>   -9.2786    1.0000 </r>
       <r>   -8.3639    1.0000 </r>
       <r>    3.1292    0.0000 </r>
       <r>    3.4550    0.0000 </r>
       <r>    4.1348    0.0000 </r>
       <r>    4.5380    0.0000 </r>
       <r>    5.3909    0.0000 </r>
       <r>    5.8364    0.0000 </r>
       <r>    6.8011    0.0000 </r>
       <r>    7.4304    0.0000 </r>
       <r>    8.1218    0.0000 </r>
       <r>    9.7605    0.0000 </r>
       <r>   10.2460    0.0000 </r>
       <r>   11.2510    0.0000 </r>
       <r>   13.4868    0.0000 </r>
       <r>   15.2294    0.0000 </r>
       <r>   15.5749    0.0000 </r>
       <r>   18.9992    0.0000 </r>
      </set>
      <set comment="kpoint 18">
       <r>  -19.5088    1.0000 </r>
       <r>  -12.3899    1.0000 </r>
       <r>   -9.9515    1.0000 </r>
       <r>   -7.3105    1.0000 </r>
       <r>    1.7526    0.0000 </r>
       <r>    4.4105    0.0000 </r>
       <r>    5.4160    0.0000 </r>
       <r>    5.8725    0.0000 </r>
       <r>    6.6898    0.0000 </r>
       <r>    6.6932    0.0000 </r>
       <r>    7.1842    0.0000 </r>
       <r>    8.6688    0.0000 </r>
       <r>    9.4204    0.0000 </r>
       <r>   11.2181    0.0000 </r>
       <r>   11.3445    0.0000 </r>
       <r>   12.5769    0.0000 </r>
       <r>   13.2355    0.0000 </r>
       <r>   16.1724    0.0000 </r>
       <r>   16.4784    0.0000 </r>
       <r>   17.2954    0.0000 </r>
      </set>
      <set comment="kpoint 19">
       <r>  -18.4062    1.0000 </r>
       <r>  -14.0137    1.0000 </r>
       <r>  -10.3950    1.0000 </r>
       <r>   -6.1373    1.0000 </r>
       <r>    0.0862    0.0000 </r>
       <r>    5.9503    0.0000 </r>
       <r>    6.5659    0.0000 </r>
       <r>    6.9395    0.0000 </r>
       <r>    7.5069    0.0000 </r>
       <r>    8.2425    0.0000 </r>
       <r>    8.7776    0.0000 </r>
       <r>   10.0001    0.0000 </r>
       <r>   10.9901    0.0000 </r>
       <r>   11.5274    0.0000 </r>
       <r>   11.5850    0.0000 </r>
       <r>   13.4779    0.0000 </r>
       <r>   14.0551    0.0000 </r>
       <r>   14.2138    0.0000 </r>
       <r>   14.4269    0.0000 </r>
       <r>   15.1008    0.0000 </r>
      </set>
      <set comment="kpoint 20">
       <r>  -17.1826    1.0000 </r>
       <r>  -15.5157    1.0000 </r>
       <r>  -10.6168    1.0000 </r>
       <r>   -5.1274    1.0000 </r>
       <r>   -1.1895    0.0000 </r>
       <r>    6.4453    0.0000 </r>
       <r>    7.7759    0.0000 </r>
       <r>    8.5184    0.0000 </r>
       <r>    9.4314    0.0000 </r>
       <r>    9.7362    0.0000 </r>
       <r>    9.8272    0.0000 </r>
       <r>   10.6157    0.0000 </r>
       <r>   10.6618    0.0000 </r>
       <r>   11.6518    0.0000 </r>
       <r>   11.8348    0.0000 </r>
       <r>   12.4933    0.0000 </r>
       <r>   12.7511    0.0000 </r>
       <r>   12.8382    0.0000 </r>
       <r>   13.4894    0.0000 </r>
       <r>   14.6978    0.0000 </r>
      </set>
      <set comment="kpoint 21">
       <r>  -19.6112    1.0000 </r>
       <r>  -11.7816    1.0000 </r>
       <r>  -10.4769    1.0000 </r>
       <r>   -7.4171    1.0000 </r>
       <r>    2.0395    0.0000 </r>
       <r>    4.2703    0.0000 </r>
       <r>    5.2538    0.0000 </r>
       <r>    5.7251    0.0000 </r>
       <r>    6.5336    0.0000 </r>
       <r>    7.0097    0.0000 </r>
       <r>    7.9868    0.0000 </r>
       <r>    8.5037    0.0000 </r>
       <r>    9.2851    0.0000 </r>
       <r>   10.3398    0.0000 </r>
       <r>   11.0148    0.0000 </r>
       <r>   12.4236    0.0000 </r>
       <r>   13.0196    0.0000 </r>
       <r>   16.1352    0.0000 </r>
       <r>   16.4025    0.0000 </r>
       <r>   18.1378    0.0000 </r>
      </set>
      <set comment="kpoint 22">
       <r>  -18.6059    1.0000 </r>
       <r>  -13.0708    1.0000 </r>
       <r>  -11.2957    1.0000 </r>
       <r>   -6.2983    1.0000 </r>
       <r>    0.5378    0.0000 </r>
       <r>    5.6823    0.0000 </r>
       <r>    6.5939    0.0000 </r>
       <r>    7.2078    0.0000 </r>
       <r>    7.9126    0.0000 </r>
       <r>    8.2593    0.0000 </r>
       <r>    8.5153    0.0000 </r>
       <r>    9.5925    0.0000 </r>
       <r>   10.5065    0.0000 </r>
       <r>   10.7773    0.0000 </r>
       <r>   11.2319    0.0000 </r>
       <r>   13.5744    0.0000 </r>
       <r>   13.8781    0.0000 </r>
       <r>   15.5054    0.0000 </r>
       <r>   16.7954    0.0000 </r>
       <r>   17.2725    0.0000 </r>
      </set>
      <set comment="kpoint 23">
       <r>  -17.4426    1.0000 </r>
       <r>  -14.5238    1.0000 </r>
       <r>  -11.7112    1.0000 </r>
       <r>   -5.1321    1.0000 </r>
       <r>   -0.8824    0.0000 </r>
       <r>    7.3382    0.0000 </r>
       <r>    7.8567    0.0000 </r>
       <r>    8.1961    0.0000 </r>
       <r>    8.9875    0.0000 </r>
       <r>    9.3309    0.0000 </r>
       <r>   10.2193    0.0000 </r>
       <r>   10.3730    0.0000 </r>
       <r>   10.8000    0.0000 </r>
       <r>   12.1364    0.0000 </r>
       <r>   12.3931    0.0000 </r>
       <r>   13.3473    0.0000 </r>
       <r>   13.4097    0.0000 </r>
       <r>   13.9028    0.0000 </r>
       <r>   14.4551    0.0000 </r>
       <r>   15.1563    0.0000 </r>
      </set>
      <set comment="kpoint 24">
       <r>  -16.4465    1.0000 </r>
       <r>  -15.6327    1.0000 </r>
       <r>  -11.8402    1.0000 </r>
       <r>   -4.4620    1.0000 </r>
       <r>   -1.6422    0.0000 </r>
       <r>    8.1283    0.0000 </r>
       <r>    8.2810    0.0000 </r>
       <r>    9.1037    0.0000 </r>
       <r>    9.2678    0.0000 </r>
       <r>   10.5704    0.0000 </r>
       <r>   11.0477    0.0000 </r>
       <r>   11.0586    0.0000 </r>
       <r>   11.2427    0.0000 </r>
       <r>   11.8904    0.0000 </r>
       <r>   12.1576    0.0000 </r>
       <r>   12.2271    0.0000 </r>
       <r>   12.5014    0.0000 </r>
       <r>   13.9675    0.0000 </r>
       <r>   14.0908    0.0000 </r>
       <r>   14.3036    0.0000 </r>
      </set>
      <set comment="kpoint 25">
       <r>  -17.5358    1.0000 </r>
       <r>  -13.8179    1.0000 </r>
       <r>  -12.4623    1.0000 </r>
       <r>   -5.1482    1.0000 </r>
       <r>   -0.7230    0.0000 </r>
       <r>    7.2025    0.0000 </r>
       <r>    7.5816    0.0000 </r>
       <r>    8.8367    0.0000 </r>
       <r>    9.1395    0.0000 </r>
       <r>    9.7716    0.0000 </r>
       <r>   10.1147    0.0000 </r>
       <r>   10.2104    0.0000 </r>
       <r>   10.2635    0.0000 </r>
       <r>   12.0758    0.0000 </r>
       <r>   12.2590    0.0000 </r>
       <r>   14.6367    0.0000 </r>
       <r>   14.7093    0.0000 </r>
       <r>   14.7773    0.0000 </r>
       <r>   15.0728    0.0000 </r>
       <r>   15.2842    0.0000 </r>
      </set>
      <set comment="kpoint 26">
       <r>  -16.3669    1.0000 </r>
       <r>  -14.8939    1.0000 </r>
       <r>  -13.0024    1.0000 </r>
       <r>   -4.0409    1.0000 </r>
       <r>   -1.8791    0.0000 </r>
       <r>    7.7001    0.0000 </r>
       <r>    8.8873    0.0000 </r>
       <r>    9.8245    0.0000 </r>
       <r>   10.3554    0.0000 </r>
       <r>   10.6349    0.0000 </r>
       <r>   10.7603    0.0000 </r>
       <r>   11.7367    0.0000 </r>
       <r>   11.9082    0.0000 </r>
       <r>   12.7925    0.0000 </r>
       <r>   12.8924    0.0000 </r>
       <r>   13.4882    0.0000 </r>
       <r>   13.7271    0.0000 </r>
       <r>   13.9760    0.0000 </r>
       <r>   14.1124    0.0000 </r>
       <r>   14.8844    0.0000 </r>
      </set>
      <set comment="kpoint 27">
       <r>  -15.3878    1.0000 </r>
       <r>  -15.3878    1.0000 </r>
       <r>  -13.6932    1.0000 </r>
       <r>   -2.9365    0.5000 </r>
       <r>   -2.9365    0.5000 </r>
       <r>    7.4641    0.0000 </r>
       <r>   10.0792    0.0000 </r>
       <r>   10.0792    0.0000 </r>
       <r>   10.5112    0.0000 </r>
       <r>   12.3198    0.0000 </r>
       <r>   12.3198    0.0000 </r>
       <r>   12.7071    0.0000 </r>
       <r>   12.7125    0.0000 </r>
       <r>   12.8144    0.0000 </r>
       <r>   13.0021    0.0000 </r>
       <r>   13.2348    0.0000 </r>
       <r>   13.2702    0.0000 </r>
       <r>   13.6637    0.0000 </r>
       <r>   13.6882    0.0000 </r>
       <r>   13.7616    0.0000 </r>
      </set>
     </set>
    </set>
   </array>
  </eigenvalues>
  <separator name="orbital magnetization" >
   <v name="MAGDIPOLOUT">      0.00000000      0.00000000      0.00000000</v>
  </separator>
  <dos>
   <i name="efermi">     -2.93645829 </i>
   <total>
    <array>
     <dimension dim="1">gridpoints</dimension>
     <dimension dim="2">spin</dimension>
     <field>energy</field>
     <field>total</field>
     <field>integrated</field>
     <set>
      <set comment="spin 1">
       <r>   -24.4887     0.0000     0.0000 </r>
       <r>   -24.3369     0.0000     0.0000 </r>
       <r>   -24.1850     0.0000     0.0000 </r>
       <r>   -24.0331     0.0000     0.0000 </r>
       <r>   -23.8813     0.0000     0.0000 </r>
       <r>   -23.7294     0.0000     0.0000 </r>
       <r>   -23.5775     0.0000     0.0000 </r>
       <r>   -23.4257     0.0000     0.0000 </r>
       <r>   -23.2738     0.0000     0.0000 </r>
       <r>   -23.1220     0.0000     0.0000 </r>
       <r>   -22.9701     0.0000     0.0000 </r>
       <r>   -22.8182     0.0000     0.0000 </r>
       <r>   -22.6664     0.0000     0.0000 </r>
       <r>   -22.5145     0.0058     0.0009 </r>
       <r>   -22.3626     0.1234     0.0196 </r>
       <r>   -22.2108     0.2753     0.0614 </r>
       <r>   -22.0589     0.3243     0.1107 </r>
       <r>   -21.9071     0.3457     0.1632 </r>
       <r>   -21.7552     0.1386     0.1842 </r>
       <r>   -21.6033     0.5143     0.2623 </r>
       <r>   -21.4515     0.2992     0.3078 </r>
       <r>   -21.2996     0.1442     0.3297 </r>
       <r>   -21.1477     0.2513     0.3678 </r>
       <r>   -20.9959     0.6448     0.4657 </r>
       <r>   -20.8440     0.1764     0.4925 </r>
       <r>   -20.6922     0.2405     0.5291 </r>
       <r>   -20.5403     0.1284     0.5486 </r>
       <r>   -20.3884     0.4744     0.6206 </r>
       <r>   -20.2366     0.4856     0.6943 </r>
       <r>   -20.0847     0.3859     0.7529 </r>
       <r>   -19.9328     0.0330     0.7580 </r>
       <r>   -19.7810     0.2240     0.7920 </r>
       <r>   -19.6291     0.2814     0.8347 </r>
       <r>   -19.4773     0.6433     0.9324 </r>
       <r>   -19.3254     0.2668     0.9729 </r>
       <r>   -19.1735     0.4401     1.0397 </r>
       <r>   -19.0217     0.2323     1.0750 </r>
       <r>   -18.8698     0.0066     1.0760 </r>
       <r>   -18.7179     0.1790     1.1032 </r>
       <r>   -18.5661     0.6687     1.2047 </r>
       <r>   -18.4142     0.5202     1.2837 </r>
       <r>   -18.2624     0.3705     1.3400 </r>
       <r>   -18.1105     0.0759     1.3515 </r>
       <r>   -17.9586     0.4903     1.4260 </r>
       <r>   -17.8068     0.1496     1.4487 </r>
       <r>   -17.6549     0.0193     1.4516 </r>
       <r>   -17.5030     0.4539     1.5206 </r>
       <r>   -17.3512     0.8468     1.6492 </r>
       <r>   -17.1993     0.3715     1.7056 </r>
       <r>   -17.0475     0.4548     1.7746 </r>
       <r>   -16.8956     0.2707     1.8158 </r>
       <r>   -16.7437     0.0424     1.8222 </r>
       <r>   -16.5919     0.0077     1.8234 </r>
       <r>   -16.4400     0.2868     1.8669 </r>
       <r>   -16.2881     0.6744     1.9693 </r>
       <r>   -16.1363     0.3081     2.0161 </r>
       <r>   -15.9844     0.1264     2.0353 </r>
       <r>   -15.8325     0.0778     2.0471 </r>
       <r>   -15.6807     0.3385     2.0985 </r>
       <r>   -15.5288     0.5676     2.1847 </r>
       <r>   -15.3770     0.5362     2.2662 </r>
       <r>   -15.2251     0.1179     2.2841 </r>
       <r>   -15.0732     0.0609     2.2933 </r>
       <r>   -14.9214     0.7247     2.4034 </r>
       <r>   -14.7695     0.5927     2.4934 </r>
       <r>   -14.6176     0.0937     2.5076 </r>
       <r>   -14.4658     0.4932     2.5825 </r>
       <r>   -14.3139     0.1831     2.6103 </r>
       <r>   -14.1621     0.2639     2.6504 </r>
       <r>   -14.0102     0.4143     2.7133 </r>
       <r>   -13.8583     0.4276     2.7782 </r>
       <r>   -13.7065     0.2899     2.8223 </r>
       <r>   -13.5546     0.0853     2.8352 </r>
       <r>   -13.4027     0.1309     2.8551 </r>
       <r>   -13.2509     0.5027     2.9315 </r>
       <r>   -13.0990     0.3732     2.9881 </r>
       <r>   -12.9472     0.9217     3.1281 </r>
       <r>   -12.7953     0.1796     3.1554 </r>
       <r>   -12.6434     0.0179     3.1581 </r>
       <r>   -12.4916     0.3881     3.2170 </r>
       <r>   -12.3397     0.8158     3.3409 </r>
       <r>   -12.1878     0.1826     3.3687 </r>
       <r>   -12.0360     0.0026     3.3690 </r>
       <r>   -11.8841     0.1237     3.3878 </r>
       <r>   -11.7323     0.7749     3.5055 </r>
       <r>   -11.5804     0.9706     3.6529 </r>
       <r>   -11.4285     0.2554     3.6917 </r>
       <r>   -11.2767     0.4073     3.7535 </r>
       <r>   -11.1248     0.2711     3.7947 </r>
       <r>   -10.9729     0.0099     3.7962 </r>
       <r>   -10.8211     0.3126     3.8437 </r>
       <r>   -10.6692     0.9418     3.9867 </r>
       <r>   -10.5174     0.9428     4.1299 </r>
       <r>   -10.3655     0.9079     4.2678 </r>
       <r>   -10.2136     0.6372     4.3645 </r>
       <r>   -10.0618     0.2212     4.3981 </r>
       <r>    -9.9099     0.8977     4.5344 </r>
       <r>    -9.7580     1.2573     4.7254 </r>
       <r>    -9.6062     0.8828     4.8594 </r>
       <r>    -9.4543     0.5871     4.9486 </r>
       <r>    -9.3025     1.2282     5.1351 </r>
       <r>    -9.1506     1.3654     5.3425 </r>
       <r>    -8.9987     0.9366     5.4847 </r>
       <r>    -8.8469     0.4729     5.5565 </r>
       <r>    -8.6950     0.9088     5.6945 </r>
       <r>    -8.5431     0.2019     5.7252 </r>
       <r>    -8.3913     0.4957     5.8005 </r>
       <r>    -8.2394     1.3316     6.0027 </r>
       <r>    -8.0876     1.3267     6.2042 </r>
       <r>    -7.9357     0.3500     6.2573 </r>
       <r>    -7.7838     0.0216     6.2606 </r>
       <r>    -7.6320     0.2448     6.2978 </r>
       <r>    -7.4801     0.6121     6.3907 </r>
       <r>    -7.3282     1.3214     6.5914 </r>
       <r>    -7.1764     0.6385     6.6884 </r>
       <r>    -7.0245     0.5130     6.7663 </r>
       <r>    -6.8727     0.5110     6.8439 </r>
       <r>    -6.7208     0.3184     6.8922 </r>
       <r>    -6.5689     0.3943     6.9521 </r>
       <r>    -6.4171     0.4413     7.0191 </r>
       <r>    -6.2652     0.7941     7.1397 </r>
       <r>    -6.1133     0.9119     7.2782 </r>
       <r>    -5.9615     0.3994     7.3389 </r>
       <r>    -5.8096     0.5166     7.4173 </r>
       <r>    -5.6578     0.2113     7.4494 </r>
       <r>    -5.5059     0.1749     7.4760 </r>
       <r>    -5.3540     0.1866     7.5043 </r>
       <r>    -5.2022     0.5218     7.5835 </r>
       <r>    -5.0503     1.3575     7.7897 </r>
       <r>    -4.8984     0.2134     7.8221 </r>
       <r>    -4.7466     0.0008     7.8222 </r>
       <r>    -4.5947     0.0106     7.8238 </r>
       <r>    -4.4429     0.2025     7.8546 </r>
       <r>    -4.2910     0.1355     7.8752 </r>
       <r>    -4.1391     0.0605     7.8843 </r>
       <r>    -3.9873     0.4872     7.9583 </r>
       <r>    -3.8354     0.1561     7.9820 </r>
       <r>    -3.6835     0.0013     7.9822 </r>
       <r>    -3.5317     0.0000     7.9822 </r>
       <r>    -3.3798     0.0000     7.9822 </r>
       <r>    -3.2280     0.0000     7.9822 </r>
       <r>    -3.0761     0.0056     7.9831 </r>
       <r>    -2.9242     0.1275     8.0024 </r>
       <r>    -2.7724     0.0986     8.0174 </r>
       <r>    -2.6205     0.0024     8.0178 </r>
       <r>    -2.4686     0.0000     8.0178 </r>
       <r>    -2.3168     0.0000     8.0178 </r>
       <r>    -2.1649     0.0000     8.0178 </r>
       <r>    -2.0131     0.0204     8.0209 </r>
       <r>    -1.8612     0.4014     8.0818 </r>
       <r>    -1.7093     0.3349     8.1327 </r>
       <r>    -1.5575     0.2564     8.1716 </r>
       <r>    -1.4056     0.0797     8.1838 </r>
       <r>    -1.2537     0.3800     8.2415 </r>
       <r>    -1.1019     0.7016     8.3480 </r>
       <r>    -0.9500     0.3929     8.4077 </r>
       <r>    -0.7982     0.5619     8.4930 </r>
       <r>    -0.6463     0.3922     8.5526 </r>
       <r>    -0.4944     0.5368     8.6341 </r>
       <r>    -0.3426     0.1547     8.6576 </r>
       <r>    -0.1907     0.0013     8.6578 </r>
       <r>    -0.0388     0.0271     8.6619 </r>
       <r>     0.1130     0.4441     8.7293 </r>
       <r>     0.2649     0.4665     8.8002 </r>
       <r>     0.4167     0.1903     8.8291 </r>
       <r>     0.5686     0.6717     8.9311 </r>
       <r>     0.7205     0.3794     8.9887 </r>
       <r>     0.8723     0.2621     9.0285 </r>
       <r>     1.0242     0.5548     9.1128 </r>
       <r>     1.1761     0.5397     9.1947 </r>
       <r>     1.3279     0.1413     9.2162 </r>
       <r>     1.4798     0.6448     9.3141 </r>
       <r>     1.6316     0.4459     9.3818 </r>
       <r>     1.7835     0.9165     9.5210 </r>
       <r>     1.9354     0.9371     9.6633 </r>
       <r>     2.0872     0.9206     9.8031 </r>
       <r>     2.2391     0.9409     9.9460 </r>
       <r>     2.3910     1.0924    10.1119 </r>
       <r>     2.5428     0.4457    10.1796 </r>
       <r>     2.6947     0.6058    10.2716 </r>
       <r>     2.8465     1.2767    10.4655 </r>
       <r>     2.9984     0.7851    10.5847 </r>
       <r>     3.1503     1.4160    10.7997 </r>
       <r>     3.3021     1.4522    11.0202 </r>
       <r>     3.4540     1.2524    11.2104 </r>
       <r>     3.6059     1.6806    11.4657 </r>
       <r>     3.7577     1.3734    11.6742 </r>
       <r>     3.9096     0.3188    11.7227 </r>
       <r>     4.0614     1.1811    11.9020 </r>
       <r>     4.2133     1.3614    12.1088 </r>
       <r>     4.3652     0.9955    12.2599 </r>
       <r>     4.5170     2.0553    12.5721 </r>
       <r>     4.6689     0.9827    12.7213 </r>
       <r>     4.8208     1.9453    13.0167 </r>
       <r>     4.9726     2.2334    13.3559 </r>
       <r>     5.1245     1.5334    13.5888 </r>
       <r>     5.2763     1.7354    13.8523 </r>
       <r>     5.4282     2.5003    14.2320 </r>
       <r>     5.5801     2.8427    14.6637 </r>
       <r>     5.7319     3.0401    15.1254 </r>
       <r>     5.8838     3.7497    15.6948 </r>
       <r>     6.0357     2.3240    16.0478 </r>
       <r>     6.1875     0.8418    16.1756 </r>
       <r>     6.3394     1.2543    16.3661 </r>
       <r>     6.4912     2.7147    16.7783 </r>
       <r>     6.6431     3.6698    17.3356 </r>
       <r>     6.7950     2.5358    17.7207 </r>
       <r>     6.9468     1.0499    17.8802 </r>
       <r>     7.0987     1.5296    18.1124 </r>
       <r>     7.2506     2.5905    18.5058 </r>
       <r>     7.4024     2.0869    18.8228 </r>
       <r>     7.5543     2.2347    19.1621 </r>
       <r>     7.7061     2.6533    19.5651 </r>
       <r>     7.8580     2.4780    19.9414 </r>
       <r>     8.0099     2.1071    20.2614 </r>
       <r>     8.1617     2.2524    20.6034 </r>
       <r>     8.3136     2.8740    21.0399 </r>
       <r>     8.4655     2.5775    21.4313 </r>
       <r>     8.6173     2.4515    21.8036 </r>
       <r>     8.7692     1.7430    22.0683 </r>
       <r>     8.9210     2.4531    22.4408 </r>
       <r>     9.0729     2.4208    22.8084 </r>
       <r>     9.2248     1.9003    23.0970 </r>
       <r>     9.3766     2.5780    23.4885 </r>
       <r>     9.5285     3.0696    23.9547 </r>
       <r>     9.6804     2.0545    24.2667 </r>
       <r>     9.8322     3.2211    24.7559 </r>
       <r>     9.9841     2.1635    25.0844 </r>
       <r>    10.1359     1.3157    25.2842 </r>
       <r>    10.2878     2.9482    25.7319 </r>
       <r>    10.4397     2.7829    26.1546 </r>
       <r>    10.5915     3.4363    26.6764 </r>
       <r>    10.7434     3.7628    27.2478 </r>
       <r>    10.8953     2.1498    27.5743 </r>
       <r>    11.0471     1.7296    27.8370 </r>
       <r>    11.1990     2.0657    28.1507 </r>
       <r>    11.3508     2.8238    28.5795 </r>
       <r>    11.5027     2.3544    28.9370 </r>
       <r>    11.6546     3.9075    29.5304 </r>
       <r>    11.8064     2.6478    29.9325 </r>
       <r>    11.9583     2.3356    30.2872 </r>
       <r>    12.1102     1.5881    30.5284 </r>
       <r>    12.2620     2.0151    30.8344 </r>
       <r>    12.4139     3.0804    31.3022 </r>
       <r>    12.5657     2.8235    31.7310 </r>
       <r>    12.7176     1.8165    32.0069 </r>
       <r>    12.8695     2.2340    32.3461 </r>
       <r>    13.0213     3.2522    32.8400 </r>
       <r>    13.1732     2.3268    33.1934 </r>
       <r>    13.3251     1.4953    33.4205 </r>
       <r>    13.4769     3.6018    33.9674 </r>
       <r>    13.6288     3.8489    34.5519 </r>
       <r>    13.7807     2.8956    34.9917 </r>
       <r>    13.9325     2.9720    35.4430 </r>
       <r>    14.0844     2.5002    35.8227 </r>
       <r>    14.2362     2.5022    36.2027 </r>
       <r>    14.3881     1.8845    36.4889 </r>
       <r>    14.5400     1.5542    36.7249 </r>
       <r>    14.6918     1.5136    36.9547 </r>
       <r>    14.8437     1.7680    37.2232 </r>
       <r>    14.9956     1.0709    37.3859 </r>
       <r>    15.1474     1.2014    37.5683 </r>
       <r>    15.2993     1.7512    37.8343 </r>
       <r>    15.4511     1.4552    38.0553 </r>
       <r>    15.6030     1.4056    38.2687 </r>
       <r>    15.7549     1.0349    38.4259 </r>
       <r>    15.9067     0.7923    38.5462 </r>
       <r>    16.0586     0.5197    38.6251 </r>
       <r>    16.2105     1.2227    38.8108 </r>
       <r>    16.3623     0.8710    38.9431 </r>
       <r>    16.5142     1.2699    39.1359 </r>
       <r>    16.6660     0.4420    39.2031 </r>
       <r>    16.8179     0.5339    39.2841 </r>
       <r>    16.9698     0.7269    39.3945 </r>
       <r>    17.1216     0.6040    39.4863 </r>
       <r>    17.2735     0.8398    39.6138 </r>
       <r>    17.4254     0.7533    39.7282 </r>
       <r>    17.5772     0.0339    39.7333 </r>
       <r>    17.7291     0.0001    39.7333 </r>
       <r>    17.8809     0.0314    39.7381 </r>
       <r>    18.0328     0.2856    39.7815 </r>
       <r>    18.1847     0.5325    39.8624 </r>
       <r>    18.3365     0.2015    39.8930 </r>
       <r>    18.4884     0.0025    39.8933 </r>
       <r>    18.6403     0.0000    39.8933 </r>
       <r>    18.7921     0.0012    39.8935 </r>
       <r>    18.9440     0.1515    39.9165 </r>
       <r>    19.0958     0.4894    39.9908 </r>
       <r>    19.2477     0.0602    40.0000 </r>
       <r>    19.3996     0.0002    40.0000 </r>
       <r>    19.5514     0.0000    40.0000 </r>
       <r>    19.7033     0.0000    40.0000 </r>
       <r>    19.8552     0.0000    40.0000 </r>
       <r>    20.0070     0.0000    40.0000 </r>
       <r>    20.1589     0.0000    40.0000 </r>
       <r>    20.3107     0.0000    40.0000 </r>
       <r>    20.4626     0.0000    40.0000 </r>
       <r>    20.6145     0.0000    40.0000 </r>
       <r>    20.7663     0.0000    40.0000 </r>
       <r>    20.9182     0.0000    40.0000 </r>
       <r>    21.0701     0.0000    40.0000 </r>
      </set>
     </set>
    </array>
   </total>
  </dos>
 </calculation>
 <structure name="finalpos" >
  <crystal>
   <varray name="basis" >
    <v>       2.44726050       0.00000000       0.00000000 </v>
    <v>      -1.22363025       2.11938976       0.00000000 </v>
    <v>       0.00000000       0.00000000      20.00000000 </v>
   </varray>
   <i name="volume">    103.73397685 </i>
   <varray name="rec_basis" >
    <v>       0.40862017       0.23591696       0.00000000 </v>
    <v>       0.00000000       0.47183393       0.00000000 </v>
    <v>       0.00000000       0.00000000       0.05000000 </v>
   </varray>
  </crystal>
  <varray name="positions" >
   <v>       0.00000000       0.00000000       0.50000000 </v>
   <v>       0.66666667       0.33333333       0.50000000 </v>
  </varray>
 </structure>
</modeling>
