 
             +---------------------------------------------------+
             |                                                   |
             |                   WANNIER90                       |
             |                                                   |
             +---------------------------------------------------+
             |                                                   |
             |        Welcome to the Maximally-Localized         |
             |        Generalized Wannier Functions code         |
             |            http://www.wannier.org                 |
             |                                                   |
             |                                                   |
             |  Wannier90 Developer Group:                       |
             |    Giovanni Pizzi    (EPFL)                       |
             |    Valerio Vitale    (Cambridge)                  |
             |    David Vanderbilt  (Rutgers University)         |
             |    Nicola Marzari    (EPFL)                       |
             |    Ivo Souza         (Universidad del Pais Vasco) |
             |    Arash A. Mostofi  (Imperial College London)    |
             |    Jonathan R. Yates (University of Oxford)       |
             |                                                   |
             |  For the full list of Wannier90 3.x authors,      |
             |  please check the code documentation and the      |
             |  README on the GitHub page of the code            |
             |                                                   |
             |                                                   |
             |  Please cite                                      |
             |                                                   |
             |  [ref] "Wannier90 as a community code:            |
             |        new features and applications",            |
             |        G. Pizzi et al., J. Phys. Cond. Matt. 32,  |
             |        165902 (2020).                             |
             |        http://doi.org/10.1088/1361-648X/ab51ff    |
             |                                                   |
             |  in any publications arising from the use of      |
             |  this code. For the method please cite            |
             |                                                   |
             |  [ref] "Maximally Localized Generalised Wannier   |
             |         Functions for Composite Energy Bands"     |
             |         N. Marzari and D. Vanderbilt              |
             |         Phys. Rev. B 56 12847 (1997)              |
             |                                                   |
             |  [ref] "Maximally Localized Wannier Functions     |
             |         for Entangled Energy Bands"               |
             |         I. Souza, N. Marzari and D. Vanderbilt    |
             |         Phys. Rev. B 65 035109 (2001)             |
             |                                                   |
             |                                                   |
             | Copyright (c) 1996-2020                           |
             |        The Wannier90 Developer Group and          |
             |        individual contributors                    |
             |                                                   |
             |      Release: 3.1.0        5th March    2020      |
             |                                                   |
             | This program is free software; you can            |
             | redistribute it and/or modify it under the terms  |
             | of the GNU General Public License as published by |
             | the Free Software Foundation; either version 2 of |
             | the License, or (at your option) any later version|
             |                                                   |
             | This program is distributed in the hope that it   |
             | will be useful, but WITHOUT ANY WARRANTY; without |
             | even the implied warranty of MERCHANTABILITY or   |
             | FITNESS FOR A PARTICULAR PURPOSE. See the GNU     |
             | General Public License for more details.          |
             |                                                   |
             | You should have received a copy of the GNU General|
             | Public License along with this program; if not,   |
             | write to the Free Software Foundation, Inc.,      |
             | 675 Mass Ave, Cambridge, MA 02139, USA.           |
             |                                                   |
             +---------------------------------------------------+
             |    Execution started on  7Nov2021 at 21:44:32     |
             +---------------------------------------------------+
 
 ******************************************************************************
 * -> Using CODATA 2006 constant values                                       *
 *    (http://physics.nist.gov/cuu/Constants/index.html)                      *
 * -> Using Bohr value from CODATA                                            *
 ******************************************************************************
 

 Running in serial (with parallel executable)
 
                                    ------
                                    SYSTEM
                                    ------
 
                              Lattice Vectors (Ang)
                    a_1     2.447261   0.000000   0.000000
                    a_2    -1.223630   2.119390   0.000000
                    a_3     0.000000   0.000000  20.000000
 
                   Unit Cell Volume:     103.73398  (Ang^3)
 
                        Reciprocal-Space Vectors (Ang^-1)
                    b_1     2.567436   1.482310   0.000000
                    b_2     0.000000   2.964620   0.000000
                    b_3     0.000000   0.000000   0.314159
  
 *----------------------------------------------------------------------------*
 |   Site       Fractional Coordinate          Cartesian Coordinate (Ang)     |
 +----------------------------------------------------------------------------+
 | C    1   0.00000   0.00000   0.50000   |    0.00000   0.00000  10.00000    |
 | C    2   0.66667   0.33333   0.50000   |    1.22363   0.70646  10.00000    |
 *----------------------------------------------------------------------------*
                                ------------
                                K-POINT GRID
                                ------------
  
             Grid size = 15 x 15 x  1      Total points =  225
  
  
 *---------------------------------- MAIN ------------------------------------*
 |  Number of Wannier Functions               :                 2             |
 |  Number of Objective Wannier Functions     :                 2             |
 |  Number of input Bloch states              :                19             |
 |  Output verbosity (1=low, 5=high)          :                 1             |
 |  Timing Level (1=low, 5=high)              :                 1             |
 |  Optimisation (0=memory, 3=speed)          :                 3             |
 |  Length Unit                               :               Ang             |
 |  Post-processing setup (write *.nnkp)      :                 F             |
 |  Using Gamma-only branch of algorithms     :                 F             |
 *----------------------------------------------------------------------------*
 *------------------------------- WANNIERISE ---------------------------------*
 |  Total number of iterations                :               100             |
 |  Number of CG steps before reset           :                 5             |
 |  Trial step length for line search         :             2.000             |
 |  Convergence tolerence                     :         0.100E-09             |
 |  Convergence window                        :                -1             |
 |  Iterations between writing output         :                 1             |
 |  Iterations between backing up to disk     :               100             |
 |  Write r^2_nm to file                      :                 F             |
 |  Write xyz WF centres to file              :                 F             |
 |  Write on-site energies <0n|H|0n> to file  :                 F             |
 |  Use guiding centre to control phases      :                 T             |
 |  Use phases for initial projections        :                 F             |
 |  Iterations before starting guiding centres:                 0             |
 |  Iterations between using guiding centres  :                 1             |
 *----------------------------------------------------------------------------*
 *------------------------------- DISENTANGLE --------------------------------*
 |  Using band disentanglement                :                 T             |
 |  Total number of iterations                :             10000             |
 |  Mixing ratio                              :             0.500             |
 |  Convergence tolerence                     :         1.000E-10             |
 |  Convergence window                        :                 3             |
 *----------------------------------------------------------------------------*
 *-------------------------------- PLOTTING ----------------------------------*
 |  Plotting interpolated bandstructure       :                 T             |
 |   Number of K-path sections                :                 3             |
 |   Divisions along first K-path section     :               100             |
 |   Output format                            :           gnuplot             |
 |   Output mode                              :               s-k             |
 *----------------------------------------------------------------------------*
 |   K-space path sections:                                                   |
 |    From: G       0.000  0.000  0.000     To: K       0.333  0.333  0.000   |
 |    From: K       0.333  0.333  0.000     To: M       0.000  0.500  0.000   |
 |    From: M       0.000  0.500  0.000     To: G       0.000  0.000  0.000   |
 *----------------------------------------------------------------------------*
 |  Plotting Hamiltonian in WF basis          :                 T             |
 *----------------------------------------------------------------------------*
 Time to read parameters        0.047 (sec)

 *---------------------------------- K-MESH ----------------------------------*
 +----------------------------------------------------------------------------+
 |                    Distance to Nearest-Neighbour Shells                    |
 |                    ------------------------------------                    |
 |          Shell             Distance (Ang^-1)          Multiplicity         |
 |          -----             -----------------          ------------         |
 |             1                   0.197641                      6            |
 |             2                   0.314159                      2            |
 |             3                   0.342325                      6            |
 |             4                   0.371158                     12            |
 |             5                   0.395283                      6            |
 |             6                   0.464631                     12            |
 |             7                   0.504920                     12            |
 |             8                   0.522910                     12            |
 |             9                   0.592924                      6            |
 |            10                   0.610025                     24            |
 |            11                   0.628319                      2            |
 |            12                   0.658670                     12            |
 |            13                   0.671010                     12            |
 |            14                   0.684650                      6            |
 |            15                   0.712606                     12            |
 |            16                   0.715521                     12            |
 |            17                   0.742316                     12            |
 |            18                   0.753287                     12            |
 |            19                   0.778783                     24            |
 |            20                   0.790565                      6            |
 |            21                   0.817447                     24            |
 |            22                   0.850699                     12            |
 |            23                   0.861499                     12            |
 |            24                   0.863911                     12            |
 |            25                   0.905706                     12            |
 |            26                   0.916993                     24            |
 |            27                   0.929263                     12            |
 |            28                   0.942478                      2            |
 |            29                   0.950048                     24            |
 |            30                   0.958645                     24            |
 |            31                   0.962978                     12            |
 |            32                   0.988207                      6            |
 |            33                   1.002722                     12            |
 |            34                   1.009840                     12            |
 |            35                   1.022014                     12            |
 |            36                   1.026974                      6            |
 +----------------------------------------------------------------------------+
 | The b-vectors are chosen automatically                                     |
 | The following shells are used:   1,  2                                     |
 +----------------------------------------------------------------------------+
 |                        Shell   # Nearest-Neighbours                        |
 |                        -----   --------------------                        |
 |                          1               6                                 |
 |                          2               2                                 |
 +----------------------------------------------------------------------------+
 | Completeness relation is fully satisfied [Eq. (B1), PRB 56, 12847 (1997)]  |
 +----------------------------------------------------------------------------+
 |                  b_k Vectors (Ang^-1) and Weights (Ang^2)                  |
 |                  ----------------------------------------                  |
 |            No.         b_k(x)      b_k(y)      b_k(z)        w_b           |
 |            ---        --------------------------------     --------        |
 |             1         0.171162    0.098821    0.000000     8.533422        |
 |             2         0.000000   -0.197641    0.000000     8.533422        |
 |             3        -0.171162    0.098821    0.000000     8.533422        |
 |             4        -0.171162   -0.098821    0.000000     8.533422        |
 |             5         0.000000    0.197641    0.000000     8.533422        |
 |             6         0.171162   -0.098821    0.000000     8.533422        |
 |             7         0.000000    0.000000    0.314159     5.066059        |
 |             8         0.000000    0.000000   -0.314159     5.066059        |
 +----------------------------------------------------------------------------+
 |                           b_k Directions (Ang^-1)                          |
 |                           -----------------------                          |
 |            No.           x           y           z                         |
 |            ---        --------------------------------                     |
 |             1         0.171162    0.098821    0.000000                     |
 |             2         0.000000   -0.197641    0.000000                     |
 |             3        -0.171162    0.098821    0.000000                     |
 |             4         0.000000    0.000000    0.314159                     |
 +----------------------------------------------------------------------------+
  
 Time to get kmesh              0.096 (sec)
 *============================================================================*
 |                              MEMORY ESTIMATE                               |
 |         Maximum RAM allocated during each phase of the calculation         |
 *============================================================================*
 |                        Disentanglement           12.87 Mb                  |
 |                            Wannierise:            0.66 Mb                  |
 |                          plot_wannier:            0.66 Mb                  |
 *----------------------------------------------------------------------------*
  
 Starting a new Wannier90 calculation ...


 Reading overlaps from wannier90.mmn    : File generated by VASP: unknown system

 Reading projections from wannier90.amn : File generated by VASP: unknown system

 Time to read overlaps          0.394 (sec)

 *------------------------------- DISENTANGLE --------------------------------*
 +----------------------------------------------------------------------------+
 |                              Energy  Windows                               |
 |                              ---------------                               |
 |                   Outer:  -16.16098  to    9.00000  (eV)                   |
 |                   No frozen states were specified                          |
 +----------------------------------------------------------------------------+
   Number of target bands to extract:    2

                   Unitarised projection of Wannier functions                  
                   ------------------------------------------                  
   A_mn = <psi_m|g_n> --> S = A.A^+ --> U = S^-1/2.A
   In dis_project... done
   No inner window (linner = F)

                   Extraction of optimally-connected subspace                  
                   ------------------------------------------                  
 +---------------------------------------------------------------------+<-- DIS
 |  Iter     Omega_I(i-1)      Omega_I(i)      Delta (frac.)    Time   |<-- DIS
 +---------------------------------------------------------------------+<-- DIS
       1       3.14543573       2.99704219       4.951E-02      0.00    <-- DIS
       2       3.06251344       2.92951446       4.540E-02      0.00    <-- DIS
       3       2.98831714       2.86945563       4.142E-02      0.01    <-- DIS
       4       2.92190239       2.81473693       3.807E-02      0.01    <-- DIS
       5       2.86188813       2.76422005       3.533E-02      0.02    <-- DIS
       6       2.80707602       2.71718702       3.308E-02      0.02    <-- DIS
       7       2.75654047       2.67314937       3.120E-02      0.03    <-- DIS
       8       2.70959375       2.63175675       2.958E-02      0.03    <-- DIS
       9       2.66572895       2.59274640       2.815E-02      0.04    <-- DIS
      10       2.62456915       2.55591333       2.686E-02      0.04    <-- DIS
      11       2.58582879       2.52109195       2.568E-02      0.05    <-- DIS
      12       2.54928604       2.48814431       2.457E-02      0.05    <-- DIS
      13       2.51476367       2.45695235       2.353E-02      0.06    <-- DIS
      14       2.48211603       2.42741275       2.254E-02      0.06    <-- DIS
      15       2.45122011       2.39943329       2.158E-02      0.06    <-- DIS
      16       2.42196944       2.37293039       2.067E-02      0.07    <-- DIS
      17       2.39426990       2.34782732       1.978E-02      0.07    <-- DIS
      18       2.36803677       2.32405287       1.893E-02      0.08    <-- DIS
      19       2.34319272       2.30154049       1.810E-02      0.08    <-- DIS
      20       2.31966631       2.28022757       1.730E-02      0.09    <-- DIS
      21       2.29739094       2.26005490       1.652E-02      0.09    <-- DIS
      22       2.27630411       2.24096630       1.577E-02      0.10    <-- DIS
      23       2.25634683       2.22290835       1.504E-02      0.10    <-- DIS
      24       2.23746321       2.20583012       1.434E-02      0.11    <-- DIS
      25       2.21960013       2.18968299       1.366E-02      0.11    <-- DIS
      26       2.20270701       2.17442052       1.301E-02      0.11    <-- DIS
      27       2.18673558       2.15999833       1.238E-02      0.12    <-- DIS
      28       2.17163978       2.14637398       1.177E-02      0.12    <-- DIS
      29       2.15737559       2.13350689       1.119E-02      0.13    <-- DIS
      30       2.14390093       2.12135827       1.063E-02      0.13    <-- DIS
      31       2.13117559       2.10989106       1.009E-02      0.14    <-- DIS
      32       2.11916113       2.09906984       9.572E-03      0.14    <-- DIS
      33       2.10782083       2.08886079       9.077E-03      0.15    <-- DIS
      34       2.09711962       2.07923162       8.603E-03      0.15    <-- DIS
      35       2.08702399       2.07015153       8.150E-03      0.15    <-- DIS
      36       2.07750199       2.06159117       7.718E-03      0.16    <-- DIS
      37       2.06852312       2.05352256       7.305E-03      0.16    <-- DIS
      38       2.06005833       2.04591906       6.911E-03      0.17    <-- DIS
      39       2.05207991       2.03875530       6.536E-03      0.17    <-- DIS
      40       2.04456151       2.03200716       6.178E-03      0.18    <-- DIS
      41       2.03747802       2.02565172       5.838E-03      0.18    <-- DIS
      42       2.03080557       2.01966718       5.515E-03      0.19    <-- DIS
      43       2.02452149       2.01403287       5.208E-03      0.19    <-- DIS
      44       2.01860421       2.00872915       4.916E-03      0.20    <-- DIS
      45       2.01303327       2.00373740       4.639E-03      0.20    <-- DIS
      46       2.00778924       1.99903996       4.377E-03      0.20    <-- DIS
      47       2.00285372       1.99462011       4.128E-03      0.21    <-- DIS
      48       1.99820923       1.99046201       3.892E-03      0.21    <-- DIS
      49       1.99383923       1.98655064       3.669E-03      0.22    <-- DIS
      50       1.98972804       1.98287182       3.458E-03      0.22    <-- DIS
      51       1.98586084       1.97941213       3.258E-03      0.23    <-- DIS
      52       1.98222358       1.97615887       3.069E-03      0.23    <-- DIS
      53       1.97880299       1.97310004       2.890E-03      0.24    <-- DIS
      54       1.97558650       1.97022431       2.722E-03      0.24    <-- DIS
      55       1.97256227       1.96752097       2.562E-03      0.25    <-- DIS
      56       1.96971908       1.96497992       2.412E-03      0.25    <-- DIS
      57       1.96704634       1.96259162       2.270E-03      0.25    <-- DIS
      58       1.96453406       1.96034706       2.136E-03      0.26    <-- DIS
      59       1.96217280       1.95823775       2.009E-03      0.26    <-- DIS
      60       1.95995367       1.95625570       1.890E-03      0.27    <-- DIS
      61       1.95786827       1.95439334       1.778E-03      0.27    <-- DIS
      62       1.95590867       1.95264357       1.672E-03      0.28    <-- DIS
      63       1.95406743       1.95099968       1.572E-03      0.28    <-- DIS
      64       1.95233750       1.94945535       1.478E-03      0.29    <-- DIS
      65       1.95071226       1.94800464       1.390E-03      0.29    <-- DIS
      66       1.94918545       1.94664194       1.307E-03      0.29    <-- DIS
      67       1.94775119       1.94536197       1.228E-03      0.30    <-- DIS
      68       1.94640395       1.94415977       1.154E-03      0.30    <-- DIS
      69       1.94513851       1.94303067       1.085E-03      0.31    <-- DIS
      70       1.94394996       1.94197026       1.019E-03      0.31    <-- DIS
      71       1.94283367       1.94097440       9.579E-04      0.32    <-- DIS
      72       1.94178530       1.94003921       9.000E-04      0.32    <-- DIS
      73       1.94080075       1.93916101       8.456E-04      0.33    <-- DIS
      74       1.93987618       1.93833636       7.944E-04      0.33    <-- DIS
      75       1.93900796       1.93756203       7.463E-04      0.34    <-- DIS
      76       1.93819268       1.93683496       7.010E-04      0.34    <-- DIS
      77       1.93742714       1.93615228       6.584E-04      0.34    <-- DIS
      78       1.93670833       1.93551131       6.184E-04      0.35    <-- DIS
      79       1.93603341       1.93490952       5.808E-04      0.35    <-- DIS
      80       1.93539973       1.93434452       5.455E-04      0.36    <-- DIS
      81       1.93480477       1.93381407       5.123E-04      0.36    <-- DIS
      82       1.93424619       1.93331607       4.811E-04      0.37    <-- DIS
      83       1.93372177       1.93284856       4.518E-04      0.37    <-- DIS
      84       1.93322943       1.93240966       4.242E-04      0.38    <-- DIS
      85       1.93276723       1.93199764       3.983E-04      0.38    <-- DIS
      86       1.93233333       1.93161086       3.740E-04      0.39    <-- DIS
      87       1.93192599       1.93124778       3.512E-04      0.39    <-- DIS
      88       1.93154361       1.93090695       3.297E-04      0.39    <-- DIS
      89       1.93118465       1.93058701       3.096E-04      0.40    <-- DIS
      90       1.93084770       1.93028668       2.906E-04      0.40    <-- DIS
      91       1.93053139       1.93000478       2.729E-04      0.41    <-- DIS
      92       1.93023449       1.92974016       2.562E-04      0.41    <-- DIS
      93       1.92995579       1.92949178       2.405E-04      0.42    <-- DIS
      94       1.92969418       1.92925864       2.258E-04      0.42    <-- DIS
      95       1.92944863       1.92903981       2.119E-04      0.43    <-- DIS
      96       1.92921814       1.92883441       1.989E-04      0.43    <-- DIS
      97       1.92900179       1.92864162       1.867E-04      0.44    <-- DIS
      98       1.92879873       1.92846067       1.753E-04      0.44    <-- DIS
      99       1.92860813       1.92829083       1.646E-04      0.44    <-- DIS
     100       1.92842924       1.92813142       1.545E-04      0.45    <-- DIS
     101       1.92826133       1.92798180       1.450E-04      0.45    <-- DIS
     102       1.92810373       1.92784137       1.361E-04      0.46    <-- DIS
     103       1.92795582       1.92770957       1.277E-04      0.46    <-- DIS
     104       1.92781699       1.92758587       1.199E-04      0.47    <-- DIS
     105       1.92768669       1.92746977       1.125E-04      0.47    <-- DIS
     106       1.92756439       1.92736081       1.056E-04      0.48    <-- DIS
     107       1.92744961       1.92725854       9.914E-05      0.48    <-- DIS
     108       1.92734189       1.92716256       9.305E-05      0.49    <-- DIS
     109       1.92724078       1.92707248       8.734E-05      0.49    <-- DIS
     110       1.92714589       1.92698793       8.197E-05      0.49    <-- DIS
     111       1.92705684       1.92690859       7.694E-05      0.50    <-- DIS
     112       1.92697326       1.92683412       7.221E-05      0.50    <-- DIS
     113       1.92689481       1.92676423       6.777E-05      0.51    <-- DIS
     114       1.92682119       1.92669864       6.361E-05      0.51    <-- DIS
     115       1.92675210       1.92663709       5.970E-05      0.52    <-- DIS
     116       1.92668726       1.92657932       5.603E-05      0.52    <-- DIS
     117       1.92662640       1.92652510       5.258E-05      0.53    <-- DIS
     118       1.92656929       1.92647422       4.935E-05      0.53    <-- DIS
     119       1.92651569       1.92642647       4.632E-05      0.54    <-- DIS
     120       1.92646539       1.92638165       4.347E-05      0.54    <-- DIS
     121       1.92641818       1.92633959       4.080E-05      0.54    <-- DIS
     122       1.92637387       1.92630012       3.829E-05      0.55    <-- DIS
     123       1.92633229       1.92626308       3.593E-05      0.55    <-- DIS
     124       1.92629327       1.92622832       3.372E-05      0.56    <-- DIS
     125       1.92625665       1.92619569       3.165E-05      0.56    <-- DIS
     126       1.92622229       1.92616508       2.970E-05      0.57    <-- DIS
     127       1.92619003       1.92613634       2.787E-05      0.57    <-- DIS
     128       1.92615976       1.92610938       2.616E-05      0.58    <-- DIS
     129       1.92613136       1.92608407       2.455E-05      0.58    <-- DIS
     130       1.92610470       1.92606033       2.304E-05      0.58    <-- DIS
     131       1.92607968       1.92603804       2.162E-05      0.59    <-- DIS
     132       1.92605621       1.92601713       2.029E-05      0.59    <-- DIS
     133       1.92603417       1.92599750       1.904E-05      0.60    <-- DIS
     134       1.92601350       1.92597908       1.787E-05      0.60    <-- DIS
     135       1.92599409       1.92596179       1.677E-05      0.61    <-- DIS
     136       1.92597588       1.92594557       1.574E-05      0.61    <-- DIS
     137       1.92595879       1.92593035       1.477E-05      0.62    <-- DIS
     138       1.92594276       1.92591606       1.386E-05      0.62    <-- DIS
     139       1.92592771       1.92590265       1.301E-05      0.63    <-- DIS
     140       1.92591358       1.92589007       1.221E-05      0.63    <-- DIS
     141       1.92590033       1.92587826       1.146E-05      0.63    <-- DIS
     142       1.92588789       1.92586718       1.075E-05      0.64    <-- DIS
     143       1.92587621       1.92585678       1.009E-05      0.64    <-- DIS
     144       1.92586526       1.92584703       9.468E-06      0.65    <-- DIS
     145       1.92585498       1.92583787       8.886E-06      0.65    <-- DIS
     146       1.92584533       1.92582927       8.339E-06      0.66    <-- DIS
     147       1.92583628       1.92582121       7.825E-06      0.66    <-- DIS
     148       1.92582778       1.92581364       7.344E-06      0.67    <-- DIS
     149       1.92581981       1.92580654       6.892E-06      0.67    <-- DIS
     150       1.92581233       1.92579987       6.467E-06      0.68    <-- DIS
     151       1.92580531       1.92579362       6.069E-06      0.68    <-- DIS
     152       1.92579872       1.92578775       5.696E-06      0.68    <-- DIS
     153       1.92579253       1.92578224       5.345E-06      0.69    <-- DIS
     154       1.92578673       1.92577707       5.016E-06      0.69    <-- DIS
     155       1.92578128       1.92577222       4.707E-06      0.70    <-- DIS
     156       1.92577617       1.92576767       4.417E-06      0.70    <-- DIS
     157       1.92577138       1.92576339       4.145E-06      0.71    <-- DIS
     158       1.92576688       1.92575938       3.890E-06      0.71    <-- DIS
     159       1.92576265       1.92575562       3.651E-06      0.72    <-- DIS
     160       1.92575869       1.92575209       3.426E-06      0.72    <-- DIS
     161       1.92575497       1.92574878       3.215E-06      0.73    <-- DIS
     162       1.92575148       1.92574567       3.017E-06      0.73    <-- DIS
     163       1.92574820       1.92574275       2.831E-06      0.73    <-- DIS
     164       1.92574513       1.92574001       2.657E-06      0.74    <-- DIS
     165       1.92574224       1.92573744       2.494E-06      0.74    <-- DIS
     166       1.92573954       1.92573503       2.340E-06      0.75    <-- DIS
     167       1.92573700       1.92573277       2.196E-06      0.75    <-- DIS
     168       1.92573461       1.92573064       2.061E-06      0.76    <-- DIS
     169       1.92573238       1.92572865       1.934E-06      0.76    <-- DIS
     170       1.92573028       1.92572678       1.815E-06      0.77    <-- DIS
     171       1.92572831       1.92572503       1.703E-06      0.77    <-- DIS
     172       1.92572646       1.92572338       1.598E-06      0.78    <-- DIS
     173       1.92572472       1.92572183       1.500E-06      0.78    <-- DIS
     174       1.92572309       1.92572038       1.408E-06      0.78    <-- DIS
     175       1.92572156       1.92571902       1.321E-06      0.79    <-- DIS
     176       1.92572013       1.92571774       1.240E-06      0.79    <-- DIS
     177       1.92571878       1.92571654       1.163E-06      0.80    <-- DIS
     178       1.92571752       1.92571542       1.092E-06      0.80    <-- DIS
     179       1.92571634       1.92571436       1.025E-06      0.81    <-- DIS
     180       1.92571522       1.92571337       9.615E-07      0.81    <-- DIS
     181       1.92571418       1.92571244       9.023E-07      0.82    <-- DIS
     182       1.92571320       1.92571157       8.468E-07      0.82    <-- DIS
     183       1.92571228       1.92571075       7.946E-07      0.83    <-- DIS
     184       1.92571142       1.92570998       7.457E-07      0.83    <-- DIS
     185       1.92571061       1.92570926       6.998E-07      0.83    <-- DIS
     186       1.92570985       1.92570858       6.568E-07      0.84    <-- DIS
     187       1.92570914       1.92570795       6.164E-07      0.84    <-- DIS
     188       1.92570847       1.92570735       5.784E-07      0.85    <-- DIS
     189       1.92570784       1.92570679       5.428E-07      0.85    <-- DIS
     190       1.92570725       1.92570627       5.094E-07      0.86    <-- DIS
     191       1.92570670       1.92570578       4.781E-07      0.86    <-- DIS
     192       1.92570618       1.92570531       4.487E-07      0.87    <-- DIS
     193       1.92570569       1.92570488       4.211E-07      0.87    <-- DIS
     194       1.92570523       1.92570447       3.952E-07      0.88    <-- DIS
     195       1.92570480       1.92570409       3.709E-07      0.88    <-- DIS
     196       1.92570440       1.92570373       3.481E-07      0.88    <-- DIS
     197       1.92570402       1.92570339       3.266E-07      0.89    <-- DIS
     198       1.92570367       1.92570308       3.066E-07      0.89    <-- DIS
     199       1.92570334       1.92570278       2.877E-07      0.90    <-- DIS
     200       1.92570302       1.92570250       2.700E-07      0.90    <-- DIS
     201       1.92570273       1.92570224       2.534E-07      0.91    <-- DIS
     202       1.92570246       1.92570200       2.378E-07      0.91    <-- DIS
     203       1.92570220       1.92570177       2.232E-07      0.92    <-- DIS
     204       1.92570195       1.92570155       2.095E-07      0.92    <-- DIS
     205       1.92570173       1.92570135       1.966E-07      0.92    <-- DIS
     206       1.92570151       1.92570116       1.845E-07      0.93    <-- DIS
     207       1.92570131       1.92570098       1.732E-07      0.93    <-- DIS
     208       1.92570113       1.92570081       1.626E-07      0.94    <-- DIS
     209       1.92570095       1.92570066       1.526E-07      0.94    <-- DIS
     210       1.92570078       1.92570051       1.432E-07      0.95    <-- DIS
     211       1.92570063       1.92570037       1.344E-07      0.95    <-- DIS
     212       1.92570048       1.92570024       1.262E-07      0.96    <-- DIS
     213       1.92570034       1.92570012       1.184E-07      0.96    <-- DIS
     214       1.92570022       1.92570000       1.111E-07      0.97    <-- DIS
     215       1.92570010       1.92569989       1.043E-07      0.97    <-- DIS
     216       1.92569998       1.92569979       9.792E-08      0.97    <-- DIS
     217       1.92569988       1.92569970       9.192E-08      0.98    <-- DIS
     218       1.92569978       1.92569961       8.628E-08      0.98    <-- DIS
     219       1.92569968       1.92569953       8.099E-08      0.99    <-- DIS
     220       1.92569959       1.92569945       7.603E-08      0.99    <-- DIS
     221       1.92569951       1.92569937       7.137E-08      1.00    <-- DIS
     222       1.92569943       1.92569931       6.700E-08      1.00    <-- DIS
     223       1.92569936       1.92569924       6.289E-08      1.01    <-- DIS
     224       1.92569929       1.92569918       5.904E-08      1.01    <-- DIS
     225       1.92569923       1.92569912       5.543E-08      1.02    <-- DIS
     226       1.92569917       1.92569907       5.204E-08      1.02    <-- DIS
     227       1.92569911       1.92569902       4.886E-08      1.02    <-- DIS
     228       1.92569906       1.92569897       4.587E-08      1.03    <-- DIS
     229       1.92569901       1.92569893       4.307E-08      1.03    <-- DIS
     230       1.92569896       1.92569889       4.044E-08      1.04    <-- DIS
     231       1.92569892       1.92569885       3.797E-08      1.04    <-- DIS
     232       1.92569888       1.92569881       3.566E-08      1.05    <-- DIS
     233       1.92569884       1.92569877       3.348E-08      1.05    <-- DIS
     234       1.92569880       1.92569874       3.144E-08      1.06    <-- DIS
     235       1.92569877       1.92569871       2.953E-08      1.06    <-- DIS
     236       1.92569874       1.92569868       2.773E-08      1.07    <-- DIS
     237       1.92569871       1.92569866       2.604E-08      1.07    <-- DIS
     238       1.92569868       1.92569863       2.446E-08      1.07    <-- DIS
     239       1.92569865       1.92569861       2.298E-08      1.08    <-- DIS
     240       1.92569863       1.92569859       2.158E-08      1.08    <-- DIS
     241       1.92569860       1.92569856       2.028E-08      1.09    <-- DIS
     242       1.92569858       1.92569854       1.905E-08      1.09    <-- DIS
     243       1.92569856       1.92569853       1.790E-08      1.10    <-- DIS
     244       1.92569854       1.92569851       1.681E-08      1.10    <-- DIS
     245       1.92569852       1.92569849       1.580E-08      1.11    <-- DIS
     246       1.92569851       1.92569848       1.485E-08      1.11    <-- DIS
     247       1.92569849       1.92569846       1.395E-08      1.11    <-- DIS
     248       1.92569847       1.92569845       1.311E-08      1.12    <-- DIS
     249       1.92569846       1.92569844       1.233E-08      1.12    <-- DIS
     250       1.92569845       1.92569842       1.159E-08      1.13    <-- DIS
     251       1.92569843       1.92569841       1.089E-08      1.13    <-- DIS
     252       1.92569842       1.92569840       1.024E-08      1.14    <-- DIS
     253       1.92569841       1.92569839       9.631E-09      1.14    <-- DIS
     254       1.92569840       1.92569838       9.058E-09      1.15    <-- DIS
     255       1.92569839       1.92569837       8.519E-09      1.15    <-- DIS
     256       1.92569838       1.92569837       8.014E-09      1.16    <-- DIS
     257       1.92569837       1.92569836       7.539E-09      1.16    <-- DIS
     258       1.92569836       1.92569835       7.094E-09      1.16    <-- DIS
     259       1.92569836       1.92569834       6.676E-09      1.17    <-- DIS
     260       1.92569835       1.92569834       6.284E-09      1.17    <-- DIS
     261       1.92569834       1.92569833       5.916E-09      1.18    <-- DIS
     262       1.92569834       1.92569833       5.570E-09      1.18    <-- DIS
     263       1.92569833       1.92569832       5.245E-09      1.19    <-- DIS
     264       1.92569832       1.92569832       4.941E-09      1.19    <-- DIS
     265       1.92569832       1.92569831       4.655E-09      1.20    <-- DIS
     266       1.92569831       1.92569831       4.386E-09      1.20    <-- DIS
     267       1.92569831       1.92569830       4.134E-09      1.21    <-- DIS
     268       1.92569831       1.92569830       3.898E-09      1.21    <-- DIS
     269       1.92569830       1.92569829       3.675E-09      1.21    <-- DIS
     270       1.92569830       1.92569829       3.467E-09      1.22    <-- DIS
     271       1.92569829       1.92569829       3.271E-09      1.22    <-- DIS
     272       1.92569829       1.92569828       3.087E-09      1.23    <-- DIS
     273       1.92569829       1.92569828       2.914E-09      1.23    <-- DIS
     274       1.92569828       1.92569828       2.752E-09      1.24    <-- DIS
     275       1.92569828       1.92569828       2.600E-09      1.24    <-- DIS
     276       1.92569828       1.92569827       2.457E-09      1.25    <-- DIS
     277       1.92569827       1.92569827       2.322E-09      1.25    <-- DIS
     278       1.92569827       1.92569827       2.196E-09      1.25    <-- DIS
     279       1.92569827       1.92569827       2.078E-09      1.26    <-- DIS
     280       1.92569827       1.92569826       1.967E-09      1.26    <-- DIS
     281       1.92569827       1.92569826       1.862E-09      1.27    <-- DIS
     282       1.92569826       1.92569826       1.764E-09      1.27    <-- DIS
     283       1.92569826       1.92569826       1.672E-09      1.28    <-- DIS
     284       1.92569826       1.92569826       1.585E-09      1.28    <-- DIS
     285       1.92569826       1.92569826       1.504E-09      1.29    <-- DIS
     286       1.92569826       1.92569825       1.427E-09      1.29    <-- DIS
     287       1.92569825       1.92569825       1.355E-09      1.30    <-- DIS
     288       1.92569825       1.92569825       1.288E-09      1.30    <-- DIS
     289       1.92569825       1.92569825       1.224E-09      1.30    <-- DIS
     290       1.92569825       1.92569825       1.165E-09      1.31    <-- DIS
     291       1.92569825       1.92569825       1.109E-09      1.31    <-- DIS
     292       1.92569825       1.92569825       1.056E-09      1.32    <-- DIS
     293       1.92569825       1.92569824       1.006E-09      1.32    <-- DIS
     294       1.92569825       1.92569824       9.597E-10      1.33    <-- DIS
     295       1.92569824       1.92569824       9.158E-10      1.33    <-- DIS
     296       1.92569824       1.92569824       8.746E-10      1.34    <-- DIS
     297       1.92569824       1.92569824       8.359E-10      1.34    <-- DIS
     298       1.92569824       1.92569824       7.994E-10      1.35    <-- DIS
     299       1.92569824       1.92569824       7.651E-10      1.35    <-- DIS
     300       1.92569824       1.92569824       7.328E-10      1.35    <-- DIS
     301       1.92569824       1.92569824       7.024E-10      1.36    <-- DIS
     302       1.92569824       1.92569824       6.738E-10      1.36    <-- DIS
     303       1.92569824       1.92569824       6.469E-10      1.37    <-- DIS
     304       1.92569824       1.92569824       6.215E-10      1.37    <-- DIS
     305       1.92569824       1.92569824       5.976E-10      1.38    <-- DIS
     306       1.92569824       1.92569823       5.751E-10      1.38    <-- DIS
     307       1.92569824       1.92569823       5.540E-10      1.39    <-- DIS
     308       1.92569823       1.92569823       5.340E-10      1.39    <-- DIS
     309       1.92569823       1.92569823       5.152E-10      1.40    <-- DIS
     310       1.92569823       1.92569823       4.974E-10      1.40    <-- DIS
     311       1.92569823       1.92569823       4.807E-10      1.40    <-- DIS
     312       1.92569823       1.92569823       4.649E-10      1.41    <-- DIS
     313       1.92569823       1.92569823       4.500E-10      1.41    <-- DIS
     314       1.92569823       1.92569823       4.359E-10      1.42    <-- DIS
     315       1.92569823       1.92569823       4.227E-10      1.42    <-- DIS
     316       1.92569823       1.92569823       4.101E-10      1.43    <-- DIS
     317       1.92569823       1.92569823       3.983E-10      1.43    <-- DIS
     318       1.92569823       1.92569823       3.871E-10      1.44    <-- DIS
     319       1.92569823       1.92569823       3.765E-10      1.44    <-- DIS
     320       1.92569823       1.92569823       3.665E-10      1.44    <-- DIS
     321       1.92569823       1.92569823       3.570E-10      1.45    <-- DIS
     322       1.92569823       1.92569823       3.481E-10      1.45    <-- DIS
     323       1.92569823       1.92569823       3.396E-10      1.46    <-- DIS
     324       1.92569823       1.92569823       3.315E-10      1.46    <-- DIS
     325       1.92569823       1.92569823       3.239E-10      1.47    <-- DIS
     326       1.92569823       1.92569823       3.167E-10      1.47    <-- DIS
     327       1.92569823       1.92569823       3.098E-10      1.48    <-- DIS
     328       1.92569823       1.92569823       3.033E-10      1.48    <-- DIS
     329       1.92569823       1.92569822       2.972E-10      1.49    <-- DIS
     330       1.92569823       1.92569822       2.913E-10      1.49    <-- DIS
     331       1.92569822       1.92569822       2.857E-10      1.49    <-- DIS
     332       1.92569822       1.92569822       2.804E-10      1.50    <-- DIS
     333       1.92569822       1.92569822       2.753E-10      1.50    <-- DIS
     334       1.92569822       1.92569822       2.705E-10      1.51    <-- DIS
     335       1.92569822       1.92569822       2.659E-10      1.51    <-- DIS
     336       1.92569822       1.92569822       2.615E-10      1.52    <-- DIS
     337       1.92569822       1.92569822       2.574E-10      1.52    <-- DIS
     338       1.92569822       1.92569822       2.534E-10      1.53    <-- DIS
     339       1.92569822       1.92569822       2.496E-10      1.53    <-- DIS
     340       1.92569822       1.92569822       2.459E-10      1.54    <-- DIS
     341       1.92569822       1.92569822       2.424E-10      1.54    <-- DIS
     342       1.92569822       1.92569822       2.391E-10      1.54    <-- DIS
     343       1.92569822       1.92569822       2.359E-10      1.55    <-- DIS
     344       1.92569822       1.92569822       2.328E-10      1.55    <-- DIS
     345       1.92569822       1.92569822       2.299E-10      1.56    <-- DIS
     346       1.92569822       1.92569822       2.270E-10      1.56    <-- DIS
     347       1.92569822       1.92569822       2.243E-10      1.57    <-- DIS
     348       1.92569822       1.92569822       2.217E-10      1.57    <-- DIS
     349       1.92569822       1.92569822       2.191E-10      1.58    <-- DIS
     350       1.92569822       1.92569822       2.167E-10      1.58    <-- DIS
     351       1.92569822       1.92569822       2.143E-10      1.58    <-- DIS
     352       1.92569822       1.92569822       2.121E-10      1.59    <-- DIS
     353       1.92569822       1.92569822       2.099E-10      1.59    <-- DIS
     354       1.92569822       1.92569822       2.078E-10      1.60    <-- DIS
     355       1.92569822       1.92569822       2.057E-10      1.60    <-- DIS
     356       1.92569822       1.92569822       2.037E-10      1.61    <-- DIS
     357       1.92569822       1.92569822       2.018E-10      1.61    <-- DIS
     358       1.92569822       1.92569822       1.999E-10      1.62    <-- DIS
     359       1.92569822       1.92569822       1.981E-10      1.62    <-- DIS
     360       1.92569822       1.92569822       1.963E-10      1.63    <-- DIS
     361       1.92569822       1.92569822       1.946E-10      1.63    <-- DIS
     362       1.92569822       1.92569822       1.929E-10      1.63    <-- DIS
     363       1.92569822       1.92569822       1.913E-10      1.64    <-- DIS
     364       1.92569822       1.92569822       1.897E-10      1.64    <-- DIS
     365       1.92569822       1.92569822       1.882E-10      1.65    <-- DIS
     366       1.92569822       1.92569822       1.866E-10      1.65    <-- DIS
     367       1.92569822       1.92569822       1.852E-10      1.66    <-- DIS
     368       1.92569822       1.92569822       1.837E-10      1.66    <-- DIS
     369       1.92569822       1.92569822       1.823E-10      1.67    <-- DIS
     370       1.92569822       1.92569821       1.809E-10      1.67    <-- DIS
     371       1.92569822       1.92569821       1.796E-10      1.68    <-- DIS
     372       1.92569821       1.92569821       1.782E-10      1.68    <-- DIS
     373       1.92569821       1.92569821       1.769E-10      1.68    <-- DIS
     374       1.92569821       1.92569821       1.756E-10      1.69    <-- DIS
     375       1.92569821       1.92569821       1.744E-10      1.69    <-- DIS
     376       1.92569821       1.92569821       1.732E-10      1.70    <-- DIS
     377       1.92569821       1.92569821       1.719E-10      1.70    <-- DIS
     378       1.92569821       1.92569821       1.707E-10      1.71    <-- DIS
     379       1.92569821       1.92569821       1.696E-10      1.71    <-- DIS
     380       1.92569821       1.92569821       1.684E-10      1.72    <-- DIS
     381       1.92569821       1.92569821       1.673E-10      1.72    <-- DIS
     382       1.92569821       1.92569821       1.661E-10      1.72    <-- DIS
     383       1.92569821       1.92569821       1.650E-10      1.73    <-- DIS
     384       1.92569821       1.92569821       1.640E-10      1.73    <-- DIS
     385       1.92569821       1.92569821       1.629E-10      1.74    <-- DIS
     386       1.92569821       1.92569821       1.618E-10      1.74    <-- DIS
     387       1.92569821       1.92569821       1.608E-10      1.75    <-- DIS
     388       1.92569821       1.92569821       1.597E-10      1.75    <-- DIS
     389       1.92569821       1.92569821       1.587E-10      1.76    <-- DIS
     390       1.92569821       1.92569821       1.577E-10      1.76    <-- DIS
     391       1.92569821       1.92569821       1.567E-10      1.77    <-- DIS
     392       1.92569821       1.92569821       1.557E-10      1.77    <-- DIS
     393       1.92569821       1.92569821       1.547E-10      1.77    <-- DIS
     394       1.92569821       1.92569821       1.538E-10      1.78    <-- DIS
     395       1.92569821       1.92569821       1.528E-10      1.78    <-- DIS
     396       1.92569821       1.92569821       1.519E-10      1.79    <-- DIS
     397       1.92569821       1.92569821       1.509E-10      1.79    <-- DIS
     398       1.92569821       1.92569821       1.500E-10      1.80    <-- DIS
     399       1.92569821       1.92569821       1.491E-10      1.80    <-- DIS
     400       1.92569821       1.92569821       1.482E-10      1.81    <-- DIS
     401       1.92569821       1.92569821       1.473E-10      1.81    <-- DIS
     402       1.92569821       1.92569821       1.464E-10      1.82    <-- DIS
     403       1.92569821       1.92569821       1.455E-10      1.82    <-- DIS
     404       1.92569821       1.92569821       1.446E-10      1.82    <-- DIS
     405       1.92569821       1.92569821       1.437E-10      1.83    <-- DIS
     406       1.92569821       1.92569821       1.429E-10      1.83    <-- DIS
     407       1.92569821       1.92569821       1.420E-10      1.84    <-- DIS
     408       1.92569821       1.92569821       1.412E-10      1.84    <-- DIS
     409       1.92569821       1.92569821       1.403E-10      1.85    <-- DIS
     410       1.92569821       1.92569821       1.395E-10      1.85    <-- DIS
     411       1.92569821       1.92569821       1.387E-10      1.86    <-- DIS
     412       1.92569821       1.92569821       1.378E-10      1.86    <-- DIS
     413       1.92569821       1.92569821       1.370E-10      1.86    <-- DIS
     414       1.92569821       1.92569821       1.362E-10      1.87    <-- DIS
     415       1.92569821       1.92569821       1.354E-10      1.87    <-- DIS
     416       1.92569821       1.92569821       1.346E-10      1.88    <-- DIS
     417       1.92569821       1.92569821       1.338E-10      1.88    <-- DIS
     418       1.92569821       1.92569821       1.330E-10      1.89    <-- DIS
     419       1.92569821       1.92569821       1.322E-10      1.89    <-- DIS
     420       1.92569821       1.92569821       1.315E-10      1.90    <-- DIS
     421       1.92569821       1.92569821       1.307E-10      1.90    <-- DIS
     422       1.92569821       1.92569821       1.299E-10      1.91    <-- DIS
     423       1.92569821       1.92569821       1.292E-10      1.91    <-- DIS
     424       1.92569821       1.92569821       1.284E-10      1.91    <-- DIS
     425       1.92569821       1.92569821       1.277E-10      1.92    <-- DIS
     426       1.92569821       1.92569821       1.269E-10      1.92    <-- DIS
     427       1.92569821       1.92569821       1.262E-10      1.93    <-- DIS
     428       1.92569821       1.92569821       1.255E-10      1.93    <-- DIS
     429       1.92569821       1.92569821       1.247E-10      1.94    <-- DIS
     430       1.92569821       1.92569821       1.240E-10      1.94    <-- DIS
     431       1.92569821       1.92569821       1.233E-10      1.95    <-- DIS
     432       1.92569821       1.92569820       1.226E-10      1.95    <-- DIS
     433       1.92569821       1.92569820       1.218E-10      1.96    <-- DIS
     434       1.92569820       1.92569820       1.211E-10      1.96    <-- DIS
     435       1.92569820       1.92569820       1.204E-10      1.96    <-- DIS
     436       1.92569820       1.92569820       1.197E-10      1.97    <-- DIS
     437       1.92569820       1.92569820       1.190E-10      1.97    <-- DIS
     438       1.92569820       1.92569820       1.184E-10      1.98    <-- DIS
     439       1.92569820       1.92569820       1.177E-10      1.98    <-- DIS
     440       1.92569820       1.92569820       1.170E-10      1.99    <-- DIS
     441       1.92569820       1.92569820       1.163E-10      1.99    <-- DIS
     442       1.92569820       1.92569820       1.156E-10      2.00    <-- DIS
     443       1.92569820       1.92569820       1.150E-10      2.00    <-- DIS
     444       1.92569820       1.92569820       1.143E-10      2.01    <-- DIS
     445       1.92569820       1.92569820       1.136E-10      2.01    <-- DIS
     446       1.92569820       1.92569820       1.130E-10      2.01    <-- DIS
     447       1.92569820       1.92569820       1.123E-10      2.02    <-- DIS
     448       1.92569820       1.92569820       1.117E-10      2.02    <-- DIS
     449       1.92569820       1.92569820       1.110E-10      2.03    <-- DIS
     450       1.92569820       1.92569820       1.104E-10      2.03    <-- DIS
     451       1.92569820       1.92569820       1.098E-10      2.04    <-- DIS
     452       1.92569820       1.92569820       1.091E-10      2.04    <-- DIS
     453       1.92569820       1.92569820       1.085E-10      2.05    <-- DIS
     454       1.92569820       1.92569820       1.079E-10      2.05    <-- DIS
     455       1.92569820       1.92569820       1.073E-10      2.05    <-- DIS
     456       1.92569820       1.92569820       1.066E-10      2.06    <-- DIS
     457       1.92569820       1.92569820       1.060E-10      2.06    <-- DIS
     458       1.92569820       1.92569820       1.054E-10      2.07    <-- DIS
     459       1.92569820       1.92569820       1.048E-10      2.07    <-- DIS
     460       1.92569820       1.92569820       1.042E-10      2.08    <-- DIS
     461       1.92569820       1.92569820       1.036E-10      2.08    <-- DIS
     462       1.92569820       1.92569820       1.030E-10      2.09    <-- DIS
     463       1.92569820       1.92569820       1.024E-10      2.09    <-- DIS
     464       1.92569820       1.92569820       1.018E-10      2.10    <-- DIS
     465       1.92569820       1.92569820       1.012E-10      2.10    <-- DIS
     466       1.92569820       1.92569820       1.006E-10      2.10    <-- DIS
     467       1.92569820       1.92569820       1.001E-10      2.11    <-- DIS
     468       1.92569820       1.92569820       9.949E-11      2.11    <-- DIS
     469       1.92569820       1.92569820       9.893E-11      2.12    <-- DIS
     470       1.92569820       1.92569820       9.836E-11      2.12    <-- DIS

             <<<      Delta < 1.000E-10  over  3 iterations     >>>
             <<< Disentanglement convergence criteria satisfied >>>

        Final Omega_I     1.92569820 (Ang^2)

 +----------------------------------------------------------------------------+

 Time to disentangle bands      2.137 (sec)

 Writing checkpoint file wannier90.chk... done

 
 *------------------------------- WANNIERISE ---------------------------------*
 +--------------------------------------------------------------------+<-- CONV
 | Iter  Delta Spread     RMS Gradient      Spread (Ang^2)      Time  |<-- CONV
 +--------------------------------------------------------------------+<-- CONV
 
 ------------------------------------------------------------------------------
 Initial State
  WF centre and spread    1  (  0.000006,  0.000018, 10.000021 )     0.97238445
  WF centre and spread    2  (  1.223643,  0.706481, 10.000083 )     0.97239455
  Sum of centres and spreads (  1.223648,  0.706499, 20.000105 )     1.94477900
 
      0     0.194E+01     0.0000000000        1.9447789766       2.13  <-- CONV
        O_D=      0.0168032 O_OD=      0.0022776 O_TOT=      1.9447790 <-- SPRD
 ------------------------------------------------------------------------------
 Cycle:      1
  WF centre and spread    1  (  0.000006,  0.000018, 10.000021 )     0.97061153
  WF centre and spread    2  (  1.223642,  0.706481, 10.000083 )     0.97062690
  Sum of centres and spreads (  1.223648,  0.706499, 20.000105 )     1.94123843
 
      1    -0.354E-02     0.0415650518        1.9412384051       2.14  <-- CONV
        O_D=      0.0131228 O_OD=      0.0024174 O_TOT=      1.9412384 <-- SPRD
 Delta: O_D= -0.3680368E-02 O_OD=  0.1397960E-03 O_TOT= -0.3540572E-02 <-- DLTA
 ------------------------------------------------------------------------------
 Cycle:      2
  WF centre and spread    1  (  0.000006,  0.000018, 10.000021 )     0.96990505
  WF centre and spread    2  (  1.223643,  0.706481, 10.000083 )     0.96990505
  Sum of centres and spreads (  1.223648,  0.706499, 20.000105 )     1.93981010
 
      2    -0.143E-02     0.0463134912        1.9398100799       2.14  <-- CONV
        O_D=      0.0118327 O_OD=      0.0022792 O_TOT=      1.9398101 <-- SPRD
 Delta: O_D= -0.1290080E-02 O_OD= -0.1382447E-03 O_TOT= -0.1428325E-02 <-- DLTA
 ------------------------------------------------------------------------------
 Cycle:      3
  WF centre and spread    1  (  0.000006,  0.000018, 10.000021 )     0.96984583
  WF centre and spread    2  (  1.223643,  0.706481, 10.000083 )     0.96984416
  Sum of centres and spreads (  1.223648,  0.706499, 20.000105 )     1.93968999
 
      3    -0.120E-03     0.0133328336        1.9396899670       2.14  <-- CONV
        O_D=      0.0117261 O_OD=      0.0022656 O_TOT=      1.9396900 <-- SPRD
 Delta: O_D= -0.1065887E-03 O_OD= -0.1352416E-04 O_TOT= -0.1201129E-03 <-- DLTA
 ------------------------------------------------------------------------------
 Cycle:      4
  WF centre and spread    1  (  0.000006,  0.000018, 10.000021 )     0.96983884
  WF centre and spread    2  (  1.223643,  0.706481, 10.000083 )     0.96983704
  Sum of centres and spreads (  1.223648,  0.706499, 20.000105 )     1.93967588
 
      4    -0.141E-04     0.0047171856        1.9396758602       2.15  <-- CONV
        O_D=      0.0117134 O_OD=      0.0022642 O_TOT=      1.9396759 <-- SPRD
 Delta: O_D= -0.1267869E-04 O_OD= -0.1428166E-05 O_TOT= -0.1410686E-04 <-- DLTA
 ------------------------------------------------------------------------------
 Cycle:      5
  WF centre and spread    1  (  0.000006,  0.000018, 10.000021 )     0.96983754
  WF centre and spread    2  (  1.223643,  0.706481, 10.000083 )     0.96983546
  Sum of centres and spreads (  1.223648,  0.706499, 20.000105 )     1.93967300
 
      5    -0.288E-05     0.0018915643        1.9396729759       2.15  <-- CONV
        O_D=      0.0117107 O_OD=      0.0022641 O_TOT=      1.9396730 <-- SPRD
 Delta: O_D= -0.2750005E-05 O_OD= -0.1342439E-06 O_TOT= -0.2884249E-05 <-- DLTA
 ------------------------------------------------------------------------------
 Cycle:      6
  WF centre and spread    1  (  0.000006,  0.000018, 10.000021 )     0.96983737
  WF centre and spread    2  (  1.223643,  0.706481, 10.000083 )     0.96983528
  Sum of centres and spreads (  1.223648,  0.706499, 20.000105 )     1.93967265
 
      6    -0.353E-06     0.0007004243        1.9396726225       2.15  <-- CONV
        O_D=      0.0117104 O_OD=      0.0022640 O_TOT=      1.9396726 <-- SPRD
 Delta: O_D= -0.3155014E-06 O_OD= -0.3788649E-07 O_TOT= -0.3533879E-06 <-- DLTA
 ------------------------------------------------------------------------------
 Cycle:      7
  WF centre and spread    1  (  0.000006,  0.000018, 10.000021 )     0.96983736
  WF centre and spread    2  (  1.223643,  0.706481, 10.000083 )     0.96983525
  Sum of centres and spreads (  1.223648,  0.706499, 20.000105 )     1.93967261
 
      7    -0.310E-07     0.0002510302        1.9396725915       2.16  <-- CONV
        O_D=      0.0117104 O_OD=      0.0022640 O_TOT=      1.9396726 <-- SPRD
 Delta: O_D= -0.2573387E-07 O_OD= -0.5299082E-08 O_TOT= -0.3103295E-07 <-- DLTA
 ------------------------------------------------------------------------------
 Cycle:      8
  WF centre and spread    1  (  0.000006,  0.000018, 10.000021 )     0.96983738
  WF centre and spread    2  (  1.223643,  0.706481, 10.000083 )     0.96983523
  Sum of centres and spreads (  1.223648,  0.706499, 20.000105 )     1.93967261
 
      8    -0.472E-08     0.0000820217        1.9396725868       2.16  <-- CONV
        O_D=      0.0117104 O_OD=      0.0022640 O_TOT=      1.9396726 <-- SPRD
 Delta: O_D= -0.3807903E-08 O_OD= -0.9099509E-09 O_TOT= -0.4717854E-08 <-- DLTA
 ------------------------------------------------------------------------------
 Cycle:      9
  WF centre and spread    1  (  0.000006,  0.000018, 10.000021 )     0.96983740
  WF centre and spread    2  (  1.223643,  0.706481, 10.000083 )     0.96983521
  Sum of centres and spreads (  1.223648,  0.706500, 20.000105 )     1.93967261
 
      9    -0.146E-08     0.0000347992        1.9396725853       2.16  <-- CONV
        O_D=      0.0117104 O_OD=      0.0022640 O_TOT=      1.9396726 <-- SPRD
 Delta: O_D= -0.8972095E-09 O_OD= -0.5610146E-09 O_TOT= -0.1458224E-08 <-- DLTA
 ------------------------------------------------------------------------------
 Cycle:     10
  WF centre and spread    1  (  0.000006,  0.000018, 10.000021 )     0.96983743
  WF centre and spread    2  (  1.223643,  0.706481, 10.000083 )     0.96983517
  Sum of centres and spreads (  1.223648,  0.706500, 20.000105 )     1.93967261
 
     10    -0.139E-08     0.0000311849        1.9396725839       2.16  <-- CONV
        O_D=      0.0117104 O_OD=      0.0022640 O_TOT=      1.9396726 <-- SPRD
 Delta: O_D= -0.7005212E-09 O_OD= -0.6941239E-09 O_TOT= -0.1394645E-08 <-- DLTA
 ------------------------------------------------------------------------------
 Cycle:     11
  WF centre and spread    1  (  0.000006,  0.000018, 10.000021 )     0.96983748
  WF centre and spread    2  (  1.223643,  0.706481, 10.000083 )     0.96983513
  Sum of centres and spreads (  1.223648,  0.706500, 20.000105 )     1.93967261
 
     11    -0.137E-08     0.0000316788        1.9396725826       2.17  <-- CONV
        O_D=      0.0117104 O_OD=      0.0022640 O_TOT=      1.9396726 <-- SPRD
 Delta: O_D= -0.7725430E-09 O_OD= -0.6017828E-09 O_TOT= -0.1374326E-08 <-- DLTA
 ------------------------------------------------------------------------------
 Cycle:     12
  WF centre and spread    1  (  0.000006,  0.000018, 10.000021 )     0.96983750
  WF centre and spread    2  (  1.223643,  0.706481, 10.000083 )     0.96983511
  Sum of centres and spreads (  1.223648,  0.706500, 20.000105 )     1.93967261
 
     12    -0.767E-09     0.0000269168        1.9396725818       2.17  <-- CONV
        O_D=      0.0117104 O_OD=      0.0022640 O_TOT=      1.9396726 <-- SPRD
 Delta: O_D= -0.4457205E-09 O_OD= -0.3215722E-09 O_TOT= -0.7672925E-09 <-- DLTA
 ------------------------------------------------------------------------------
 Cycle:     13
  WF centre and spread    1  (  0.000006,  0.000018, 10.000021 )     0.96983750
  WF centre and spread    2  (  1.223643,  0.706481, 10.000083 )     0.96983511
  Sum of centres and spreads (  1.223648,  0.706500, 20.000105 )     1.93967260
 
     13    -0.203E-09     0.0000174608        1.9396725816       2.17  <-- CONV
        O_D=      0.0117104 O_OD=      0.0022640 O_TOT=      1.9396726 <-- SPRD
 Delta: O_D= -0.1094477E-09 O_OD= -0.9330856E-10 O_TOT= -0.2027565E-09 <-- DLTA
 ------------------------------------------------------------------------------
 Cycle:     14
  WF centre and spread    1  (  0.000006,  0.000018, 10.000021 )     0.96983750
  WF centre and spread    2  (  1.223643,  0.706481, 10.000083 )     0.96983510
  Sum of centres and spreads (  1.223648,  0.706500, 20.000105 )     1.93967260
 
     14    -0.125E-09     0.0000101935        1.9396725815       2.18  <-- CONV
        O_D=      0.0117104 O_OD=      0.0022640 O_TOT=      1.9396726 <-- SPRD
 Delta: O_D=  0.8719575E-11 O_OD= -0.1338751E-09 O_TOT= -0.1251557E-09 <-- DLTA
 ------------------------------------------------------------------------------
 Cycle:     15
  WF centre and spread    1  (  0.000006,  0.000018, 10.000021 )     0.96983750
  WF centre and spread    2  (  1.223643,  0.706481, 10.000083 )     0.96983510
  Sum of centres and spreads (  1.223648,  0.706500, 20.000105 )     1.93967260
 
     15    -0.155E-09     0.0000093716        1.9396725813       2.18  <-- CONV
        O_D=      0.0117104 O_OD=      0.0022640 O_TOT=      1.9396726 <-- SPRD
 Delta: O_D=  0.4001761E-11 O_OD= -0.1587539E-09 O_TOT= -0.1547518E-09 <-- DLTA
 ------------------------------------------------------------------------------
 Cycle:     16
  WF centre and spread    1  (  0.000006,  0.000018, 10.000021 )     0.96983751
  WF centre and spread    2  (  1.223643,  0.706481, 10.000083 )     0.96983509
  Sum of centres and spreads (  1.223648,  0.706500, 20.000105 )     1.93967260
 
     16    -0.137E-09     0.0000084337        1.9396725812       2.18  <-- CONV
        O_D=      0.0117104 O_OD=      0.0022640 O_TOT=      1.9396726 <-- SPRD
 Delta: O_D=  0.8826009E-10 O_OD= -0.2255163E-09 O_TOT= -0.1372562E-09 <-- DLTA
 ------------------------------------------------------------------------------
 Cycle:     17
  WF centre and spread    1  (  0.000006,  0.000018, 10.000021 )     0.96983751
  WF centre and spread    2  (  1.223643,  0.706481, 10.000083 )     0.96983509
  Sum of centres and spreads (  1.223648,  0.706500, 20.000105 )     1.93967260
 
     17    -0.120E-09     0.0000146333        1.9396725811       2.19  <-- CONV
        O_D=      0.0117104 O_OD=      0.0022640 O_TOT=      1.9396726 <-- SPRD
 Delta: O_D= -0.7022487E-10 O_OD= -0.4940814E-10 O_TOT= -0.1196332E-09 <-- DLTA
 ------------------------------------------------------------------------------
 Cycle:     18
  WF centre and spread    1  (  0.000006,  0.000018, 10.000021 )     0.96983752
  WF centre and spread    2  (  1.223643,  0.706481, 10.000083 )     0.96983508
  Sum of centres and spreads (  1.223648,  0.706500, 20.000105 )     1.93967260
 
     18    -0.527E-10     0.0000066070        1.9396725810       2.19  <-- CONV
        O_D=      0.0117104 O_OD=      0.0022640 O_TOT=      1.9396726 <-- SPRD
 Delta: O_D=  0.4777043E-11 O_OD= -0.5747220E-10 O_TOT= -0.5269518E-10 <-- DLTA
 ------------------------------------------------------------------------------
 Cycle:     19
  WF centre and spread    1  (  0.000006,  0.000018, 10.000021 )     0.96983753
  WF centre and spread    2  (  1.223643,  0.706481, 10.000083 )     0.96983507
  Sum of centres and spreads (  1.223648,  0.706500, 20.000105 )     1.93967260
 
     19    -0.474E-10     0.0000057574        1.9396725810       2.19  <-- CONV
        O_D=      0.0117104 O_OD=      0.0022640 O_TOT=      1.9396726 <-- SPRD
 Delta: O_D=  0.5578999E-11 O_OD= -0.5294311E-10 O_TOT= -0.4736411E-10 <-- DLTA
 ------------------------------------------------------------------------------
 Cycle:     20
  WF centre and spread    1  (  0.000006,  0.000018, 10.000021 )     0.96983753
  WF centre and spread    2  (  1.223643,  0.706481, 10.000083 )     0.96983507
  Sum of centres and spreads (  1.223648,  0.706500, 20.000105 )     1.93967260
 
     20    -0.243E-12     0.0000048605        1.9396725810       2.19  <-- CONV
        O_D=      0.0117104 O_OD=      0.0022640 O_TOT=      1.9396726 <-- SPRD
 Delta: O_D= -0.3253300E-13 O_OD= -0.2108487E-12 O_TOT= -0.2433609E-12 <-- DLTA
 ------------------------------------------------------------------------------
 Cycle:     21
  WF centre and spread    1  (  0.000006,  0.000018, 10.000021 )     0.96983754
  WF centre and spread    2  (  1.223643,  0.706481, 10.000083 )     0.96983507
  Sum of centres and spreads (  1.223648,  0.706500, 20.000105 )     1.93967260
 
     21    -0.360E-10     0.0000048465        1.9396725809       2.20  <-- CONV
        O_D=      0.0117104 O_OD=      0.0022640 O_TOT=      1.9396726 <-- SPRD
 Delta: O_D=  0.9121887E-11 O_OD= -0.4509460E-10 O_TOT= -0.3597278E-10 <-- DLTA
 ------------------------------------------------------------------------------
 Cycle:     22
  WF centre and spread    1  (  0.000006,  0.000018, 10.000021 )     0.96983755
  WF centre and spread    2  (  1.223643,  0.706481, 10.000083 )     0.96983506
  Sum of centres and spreads (  1.223648,  0.706500, 20.000105 )     1.93967260
 
     22    -0.222E-10     0.0000055611        1.9396725809       2.20  <-- CONV
        O_D=      0.0117104 O_OD=      0.0022640 O_TOT=      1.9396726 <-- SPRD
 Delta: O_D=  0.4030193E-10 O_OD= -0.6247024E-10 O_TOT= -0.2216827E-10 <-- DLTA
 ------------------------------------------------------------------------------
 Cycle:     23
  WF centre and spread    1  (  0.000006,  0.000018, 10.000021 )     0.96983755
  WF centre and spread    2  (  1.223643,  0.706481, 10.000083 )     0.96983506
  Sum of centres and spreads (  1.223648,  0.706500, 20.000105 )     1.93967260
 
     23    -0.464E-10     0.0000091453        1.9396725809       2.20  <-- CONV
        O_D=      0.0117104 O_OD=      0.0022640 O_TOT=      1.9396726 <-- SPRD
 Delta: O_D= -0.3358748E-10 O_OD= -0.1279479E-10 O_TOT= -0.4638223E-10 <-- DLTA
 ------------------------------------------------------------------------------
 Cycle:     24
  WF centre and spread    1  (  0.000006,  0.000018, 10.000021 )     0.96983755
  WF centre and spread    2  (  1.223643,  0.706481, 10.000083 )     0.96983506
  Sum of centres and spreads (  1.223648,  0.706500, 20.000105 )     1.93967260
 
     24    -0.119E-12     0.0000037665        1.9396725809       2.20  <-- CONV
        O_D=      0.0117104 O_OD=      0.0022640 O_TOT=      1.9396726 <-- SPRD
 Delta: O_D= -0.6054358E-13 O_OD= -0.5887391E-13 O_TOT= -0.1194600E-12 <-- DLTA
 ------------------------------------------------------------------------------
 Cycle:     25
  WF centre and spread    1  (  0.000006,  0.000018, 10.000021 )     0.96983755
  WF centre and spread    2  (  1.223643,  0.706481, 10.000083 )     0.96983506
  Sum of centres and spreads (  1.223648,  0.706500, 20.000105 )     1.93967260
 
     25    -0.145E-10     0.0000037523        1.9396725808       2.21  <-- CONV
        O_D=      0.0117104 O_OD=      0.0022640 O_TOT=      1.9396726 <-- SPRD
 Delta: O_D= -0.8270589E-12 O_OD= -0.1369503E-10 O_TOT= -0.1452194E-10 <-- DLTA
 ------------------------------------------------------------------------------
 Cycle:     26
  WF centre and spread    1  (  0.000006,  0.000018, 10.000021 )     0.96983755
  WF centre and spread    2  (  1.223643,  0.706481, 10.000083 )     0.96983506
  Sum of centres and spreads (  1.223648,  0.706500, 20.000105 )     1.93967260
 
     26    -0.913E-13     0.0000036803        1.9396725808       2.21  <-- CONV
        O_D=      0.0117104 O_OD=      0.0022640 O_TOT=      1.9396726 <-- SPRD
 Delta: O_D=  0.4201674E-13 O_OD= -0.1332324E-12 O_TOT= -0.9126033E-13 <-- DLTA
 ------------------------------------------------------------------------------
 Cycle:     27
  WF centre and spread    1  (  0.000006,  0.000018, 10.000021 )     0.96983755
  WF centre and spread    2  (  1.223643,  0.706481, 10.000083 )     0.96983505
  Sum of centres and spreads (  1.223648,  0.706500, 20.000105 )     1.93967260
 
     27    -0.199E-10     0.0000036861        1.9396725808       2.21  <-- CONV
        O_D=      0.0117104 O_OD=      0.0022640 O_TOT=      1.9396726 <-- SPRD
 Delta: O_D=  0.9942460E-11 O_OD= -0.2980595E-10 O_TOT= -0.1986367E-10 <-- DLTA
 ------------------------------------------------------------------------------
 Cycle:     28
  WF centre and spread    1  (  0.000006,  0.000018, 10.000021 )     0.96983755
  WF centre and spread    2  (  1.223643,  0.706481, 10.000083 )     0.96983505
  Sum of centres and spreads (  1.223648,  0.706500, 20.000105 )     1.93967260
 
     28    -0.196E-10     0.0000046106        1.9396725808       2.21  <-- CONV
        O_D=      0.0117104 O_OD=      0.0022640 O_TOT=      1.9396726 <-- SPRD
 Delta: O_D=  0.1634677E-10 O_OD= -0.3597951E-10 O_TOT= -0.1963274E-10 <-- DLTA
 ------------------------------------------------------------------------------
 Cycle:     29
  WF centre and spread    1  (  0.000006,  0.000018, 10.000021 )     0.96983755
  WF centre and spread    2  (  1.223643,  0.706481, 10.000083 )     0.96983505
  Sum of centres and spreads (  1.223648,  0.706500, 20.000105 )     1.93967260
 
     29    -0.227E-10     0.0000066926        1.9396725808       2.22  <-- CONV
        O_D=      0.0117104 O_OD=      0.0022640 O_TOT=      1.9396726 <-- SPRD
 Delta: O_D= -0.1612372E-10 O_OD= -0.6536383E-11 O_TOT= -0.2265987E-10 <-- DLTA
 ------------------------------------------------------------------------------
 Cycle:     30
  WF centre and spread    1  (  0.000006,  0.000018, 10.000021 )     0.96983755
  WF centre and spread    2  (  1.223643,  0.706481, 10.000083 )     0.96983505
  Sum of centres and spreads (  1.223648,  0.706500, 20.000105 )     1.93967260
 
     30    -0.810E-13     0.0000029734        1.9396725808       2.22  <-- CONV
        O_D=      0.0117104 O_OD=      0.0022640 O_TOT=      1.9396726 <-- SPRD
 Delta: O_D= -0.2552125E-13 O_OD= -0.5544957E-13 O_TOT= -0.8104628E-13 <-- DLTA
 ------------------------------------------------------------------------------
 Cycle:     31
  WF centre and spread    1  (  0.000006,  0.000018, 10.000021 )     0.96983756
  WF centre and spread    2  (  1.223643,  0.706481, 10.000083 )     0.96983505
  Sum of centres and spreads (  1.223648,  0.706500, 20.000105 )     1.93967260
 
     31    -0.115E-10     0.0000029641        1.9396725808       2.22  <-- CONV
        O_D=      0.0117104 O_OD=      0.0022640 O_TOT=      1.9396726 <-- SPRD
 Delta: O_D=  0.1540039E-11 O_OD= -0.1308121E-10 O_TOT= -0.1154121E-10 <-- DLTA
 ------------------------------------------------------------------------------
 Cycle:     32
  WF centre and spread    1  (  0.000006,  0.000018, 10.000021 )     0.96983756
  WF centre and spread    2  (  1.223643,  0.706481, 10.000083 )     0.96983505
  Sum of centres and spreads (  1.223648,  0.706500, 20.000105 )     1.93967260
 
     32    -0.397E-13     0.0000022448        1.9396725808       2.22  <-- CONV
        O_D=      0.0117104 O_OD=      0.0022640 O_TOT=      1.9396726 <-- SPRD
 Delta: O_D=  0.2295733E-13 O_OD= -0.6268814E-13 O_TOT= -0.3974598E-13 <-- DLTA
 ------------------------------------------------------------------------------
 Cycle:     33
  WF centre and spread    1  (  0.000006,  0.000018, 10.000021 )     0.96983756
  WF centre and spread    2  (  1.223643,  0.706481, 10.000083 )     0.96983505
  Sum of centres and spreads (  1.223648,  0.706500, 20.000105 )     1.93967260
 
     33    -0.804E-13     0.0000022444        1.9396725808       2.23  <-- CONV
        O_D=      0.0117104 O_OD=      0.0022640 O_TOT=      1.9396726 <-- SPRD
 Delta: O_D=  0.4845083E-14 O_OD= -0.8533235E-13 O_TOT= -0.8038015E-13 <-- DLTA
 ------------------------------------------------------------------------------
 Cycle:     34
  WF centre and spread    1  (  0.000006,  0.000018, 10.000021 )     0.96983756
  WF centre and spread    2  (  1.223643,  0.706481, 10.000083 )     0.96983505
  Sum of centres and spreads (  1.223648,  0.706500, 20.000105 )     1.93967260
 
     34    -0.120E-12     0.0000022343        1.9396725808       2.23  <-- CONV
        O_D=      0.0117104 O_OD=      0.0022640 O_TOT=      1.9396726 <-- SPRD
 Delta: O_D= -0.1276583E-13 O_OD= -0.1070754E-12 O_TOT= -0.1199041E-12 <-- DLTA
 ------------------------------------------------------------------------------
 Cycle:     35
  WF centre and spread    1  (  0.000006,  0.000018, 10.000021 )     0.96983756
  WF centre and spread    2  (  1.223643,  0.706481, 10.000083 )     0.96983505
  Sum of centres and spreads (  1.223648,  0.706500, 20.000105 )     1.93967260
 
     35    -0.400E-13     0.0000022150        1.9396725808       2.23  <-- CONV
        O_D=      0.0117104 O_OD=      0.0022640 O_TOT=      1.9396726 <-- SPRD
 Delta: O_D= -0.1731428E-13 O_OD= -0.2259824E-13 O_TOT= -0.3996803E-13 <-- DLTA
 ------------------------------------------------------------------------------
 Cycle:     36
  WF centre and spread    1  (  0.000006,  0.000018, 10.000021 )     0.96983756
  WF centre and spread    2  (  1.223643,  0.706481, 10.000083 )     0.96983505
  Sum of centres and spreads (  1.223648,  0.706500, 20.000105 )     1.93967260
 
     36    -0.788E-13     0.0000022058        1.9396725808       2.23  <-- CONV
        O_D=      0.0117104 O_OD=      0.0022640 O_TOT=      1.9396726 <-- SPRD
 Delta: O_D= -0.3384792E-13 O_OD= -0.4497054E-13 O_TOT= -0.7882583E-13 <-- DLTA
 ------------------------------------------------------------------------------
 Cycle:     37
  WF centre and spread    1  (  0.000006,  0.000018, 10.000021 )     0.96983756
  WF centre and spread    2  (  1.223643,  0.706481, 10.000083 )     0.96983504
  Sum of centres and spreads (  1.223648,  0.706500, 20.000105 )     1.93967260
 
     37    -0.470E-11     0.0000021876        1.9396725808       2.23  <-- CONV
        O_D=      0.0117104 O_OD=      0.0022640 O_TOT=      1.9396726 <-- SPRD
 Delta: O_D=  0.4182592E-13 O_OD= -0.4742122E-11 O_TOT= -0.4700240E-11 <-- DLTA
 ------------------------------------------------------------------------------
 Cycle:     38
  WF centre and spread    1  (  0.000006,  0.000018, 10.000021 )     0.96983756
  WF centre and spread    2  (  1.223643,  0.706481, 10.000083 )     0.96983504
  Sum of centres and spreads (  1.223648,  0.706500, 20.000105 )     1.93967260
 
     38    -0.424E-13     0.0000020759        1.9396725808       2.24  <-- CONV
        O_D=      0.0117104 O_OD=      0.0022640 O_TOT=      1.9396726 <-- SPRD
 Delta: O_D=  0.3150258E-13 O_OD= -0.7390616E-13 O_TOT= -0.4241052E-13 <-- DLTA
 ------------------------------------------------------------------------------
 Cycle:     39
  WF centre and spread    1  (  0.000006,  0.000018, 10.000021 )     0.96983756
  WF centre and spread    2  (  1.223643,  0.706481, 10.000083 )     0.96983504
  Sum of centres and spreads (  1.223648,  0.706500, 20.000105 )     1.93967260
 
     39    -0.777E-13     0.0000020856        1.9396725808       2.24  <-- CONV
[...]
  WF centre and spread    2  (  1.223643,  0.706481, 10.000083 )     0.96983504
  Sum of centres and spreads (  1.223648,  0.706500, 20.000105 )     1.93967260
 
     70    -0.855E-13     0.0000013251        1.9396725808       2.29  <-- CONV
        O_D=      0.0117104 O_OD=      0.0022640 O_TOT=      1.9396726 <-- SPRD
 Delta: O_D=  0.2318111E-13 O_OD= -0.1085933E-12 O_TOT= -0.8548717E-13 <-- DLTA
 ------------------------------------------------------------------------------
 Cycle:     71
  WF centre and spread    1  (  0.000006,  0.000018, 10.000021 )     0.96983756
  WF centre and spread    2  (  1.223643,  0.706481, 10.000083 )     0.96983504
  Sum of centres and spreads (  1.223648,  0.706500, 20.000105 )     1.93967260
 
     71    -0.142E-13     0.0000013214        1.9396725808       2.29  <-- CONV
        O_D=      0.0117104 O_OD=      0.0022640 O_TOT=      1.9396726 <-- SPRD
 Delta: O_D=  0.3967313E-14 O_OD= -0.1820289E-13 O_TOT= -0.1421085E-13 <-- DLTA
 ------------------------------------------------------------------------------
 Cycle:     72
  WF centre and spread    1  (  0.000006,  0.000018, 10.000021 )     0.96983756
  WF centre and spread    2  (  1.223643,  0.706481, 10.000083 )     0.96983504
  Sum of centres and spreads (  1.223648,  0.706500, 20.000105 )     1.93967260
 
     72    -0.284E-13     0.0000013209        1.9396725808       2.29  <-- CONV
        O_D=      0.0117104 O_OD=      0.0022640 O_TOT=      1.9396726 <-- SPRD
 Delta: O_D=  0.8005749E-14 O_OD= -0.3637585E-13 O_TOT= -0.2842171E-13 <-- DLTA
 ------------------------------------------------------------------------------
 Cycle:     73
  WF centre and spread    1  (  0.000006,  0.000018, 10.000021 )     0.96983756
  WF centre and spread    2  (  1.223643,  0.706481, 10.000083 )     0.96983504
  Sum of centres and spreads (  1.223648,  0.706500, 20.000105 )     1.93967260
 
     73    -0.429E-13     0.0000013198        1.9396725808       2.30  <-- CONV
        O_D=      0.0117104 O_OD=      0.0022640 O_TOT=      1.9396726 <-- SPRD
 Delta: O_D=  0.1188112E-13 O_OD= -0.5447075E-13 O_TOT= -0.4285461E-13 <-- DLTA
 ------------------------------------------------------------------------------
 Cycle:     74
  WF centre and spread    1  (  0.000006,  0.000018, 10.000021 )     0.96983756
  WF centre and spread    2  (  1.223643,  0.706481, 10.000083 )     0.96983504
  Sum of centres and spreads (  1.223648,  0.706500, 20.000105 )     1.93967260
 
     74    -0.564E-13     0.0000013182        1.9396725808       2.30  <-- CONV
        O_D=      0.0117104 O_OD=      0.0022640 O_TOT=      1.9396726 <-- SPRD
 Delta: O_D=  0.1594558E-13 O_OD= -0.7248325E-13 O_TOT= -0.5639933E-13 <-- DLTA
 ------------------------------------------------------------------------------
 Cycle:     75
  WF centre and spread    1  (  0.000006,  0.000018, 10.000021 )     0.96983756
  WF centre and spread    2  (  1.223643,  0.706481, 10.000083 )     0.96983504
  Sum of centres and spreads (  1.223648,  0.706500, 20.000105 )     1.93967260
 
     75    -0.704E-13     0.0000013162        1.9396725808       2.30  <-- CONV
        O_D=      0.0117104 O_OD=      0.0022640 O_TOT=      1.9396726 <-- SPRD
 Delta: O_D=  0.1998922E-13 O_OD= -0.9034006E-13 O_TOT= -0.7038814E-13 <-- DLTA
 ------------------------------------------------------------------------------
 Cycle:     76
  WF centre and spread    1  (  0.000006,  0.000018, 10.000021 )     0.96983756
  WF centre and spread    2  (  1.223643,  0.706481, 10.000083 )     0.96983504
  Sum of centres and spreads (  1.223648,  0.706500, 20.000105 )     1.93967260
 
     76    -0.839E-13     0.0000013137        1.9396725808       2.30  <-- CONV
        O_D=      0.0117104 O_OD=      0.0022640 O_TOT=      1.9396726 <-- SPRD
 Delta: O_D=  0.2400163E-13 O_OD= -0.1080360E-12 O_TOT= -0.8393286E-13 <-- DLTA
 ------------------------------------------------------------------------------
 Cycle:     77
  WF centre and spread    1  (  0.000006,  0.000018, 10.000021 )     0.96983756
  WF centre and spread    2  (  1.223643,  0.706481, 10.000083 )     0.96983504
  Sum of centres and spreads (  1.223648,  0.706500, 20.000105 )     1.93967260
 
     77    -0.140E-13     0.0000013109        1.9396725808       2.30  <-- CONV
        O_D=      0.0117104 O_OD=      0.0022640 O_TOT=      1.9396726 <-- SPRD
 Delta: O_D=  0.4052314E-14 O_OD= -0.1806368E-13 O_TOT= -0.1398881E-13 <-- DLTA
 ------------------------------------------------------------------------------
 Cycle:     78
  WF centre and spread    1  (  0.000006,  0.000018, 10.000021 )     0.96983756
  WF centre and spread    2  (  1.223643,  0.706481, 10.000083 )     0.96983504
  Sum of centres and spreads (  1.223648,  0.706500, 20.000105 )     1.93967260
 
     78    -0.280E-13     0.0000013105        1.9396725808       2.30  <-- CONV
        O_D=      0.0117104 O_OD=      0.0022640 O_TOT=      1.9396726 <-- SPRD
 Delta: O_D=  0.8137588E-14 O_OD= -0.3611174E-13 O_TOT= -0.2797762E-13 <-- DLTA
 ------------------------------------------------------------------------------
 Cycle:     79
  WF centre and spread    1  (  0.000006,  0.000018, 10.000021 )     0.96983756
  WF centre and spread    2  (  1.223643,  0.706481, 10.000083 )     0.96983504
  Sum of centres and spreads (  1.223648,  0.706500, 20.000105 )     1.93967260
 
     79    -0.420E-13     0.0000013096        1.9396725808       2.31  <-- CONV
        O_D=      0.0117104 O_OD=      0.0022640 O_TOT=      1.9396726 <-- SPRD
 Delta: O_D=  0.1218123E-13 O_OD= -0.5409822E-13 O_TOT= -0.4196643E-13 <-- DLTA
 ------------------------------------------------------------------------------
 Cycle:     80
  WF centre and spread    1  (  0.000006,  0.000018, 10.000021 )     0.96983756
  WF centre and spread    2  (  1.223643,  0.706481, 10.000083 )     0.96983504
  Sum of centres and spreads (  1.223648,  0.706500, 20.000105 )     1.93967260
 
     80    -0.555E-13     0.0000013084        1.9396725808       2.31  <-- CONV
        O_D=      0.0117104 O_OD=      0.0022640 O_TOT=      1.9396726 <-- SPRD
 Delta: O_D=  0.1632375E-13 O_OD= -0.7200881E-13 O_TOT= -0.5551115E-13 <-- DLTA
 ------------------------------------------------------------------------------
 Cycle:     81
  WF centre and spread    1  (  0.000006,  0.000018, 10.000021 )     0.96983756
  WF centre and spread    2  (  1.223643,  0.706481, 10.000083 )     0.96983504
  Sum of centres and spreads (  1.223648,  0.706500, 20.000105 )     1.93967260
 
     81    -0.697E-13     0.0000013068        1.9396725808       2.31  <-- CONV
        O_D=      0.0117104 O_OD=      0.0022640 O_TOT=      1.9396726 <-- SPRD
 Delta: O_D=  0.2030320E-13 O_OD= -0.8976327E-13 O_TOT= -0.6972201E-13 <-- DLTA
 ------------------------------------------------------------------------------
 Cycle:     82
  WF centre and spread    1  (  0.000006,  0.000018, 10.000021 )     0.96983756
  WF centre and spread    2  (  1.223643,  0.706481, 10.000083 )     0.96983504
  Sum of centres and spreads (  1.223648,  0.706500, 20.000105 )     1.93967260
 
     82    -0.828E-13     0.0000013048        1.9396725808       2.31  <-- CONV
        O_D=      0.0117104 O_OD=      0.0022640 O_TOT=      1.9396726 <-- SPRD
 Delta: O_D=  0.2445613E-13 O_OD= -0.1074193E-12 O_TOT= -0.8282264E-13 <-- DLTA
 ------------------------------------------------------------------------------
 Cycle:     83
  WF centre and spread    1  (  0.000006,  0.000018, 10.000021 )     0.96983756
  WF centre and spread    2  (  1.223643,  0.706481, 10.000083 )     0.96983504
  Sum of centres and spreads (  1.223648,  0.706500, 20.000105 )     1.93967260
 
     83    -0.138E-13     0.0000013025        1.9396725808       2.31  <-- CONV
        O_D=      0.0117104 O_OD=      0.0022640 O_TOT=      1.9396726 <-- SPRD
 Delta: O_D=  0.4126907E-14 O_OD= -0.1793184E-13 O_TOT= -0.1376677E-13 <-- DLTA
 ------------------------------------------------------------------------------
 Cycle:     84
  WF centre and spread    1  (  0.000006,  0.000018, 10.000021 )     0.96983756
  WF centre and spread    2  (  1.223643,  0.706481, 10.000083 )     0.96983504
  Sum of centres and spreads (  1.223648,  0.706500, 20.000105 )     1.93967260
 
     84    -0.278E-13     0.0000013022        1.9396725808       2.31  <-- CONV
        O_D=      0.0117104 O_OD=      0.0022640 O_TOT=      1.9396726 <-- SPRD
 Delta: O_D=  0.8222589E-14 O_OD= -0.3585717E-13 O_TOT= -0.2775558E-13 <-- DLTA
 ------------------------------------------------------------------------------
 Cycle:     85
  WF centre and spread    1  (  0.000006,  0.000018, 10.000021 )     0.96983756
  WF centre and spread    2  (  1.223643,  0.706481, 10.000083 )     0.96983504
  Sum of centres and spreads (  1.223648,  0.706500, 20.000105 )     1.93967260
 
     85    -0.415E-13     0.0000013015        1.9396725808       2.32  <-- CONV
        O_D=      0.0117104 O_OD=      0.0022640 O_TOT=      1.9396726 <-- SPRD
 Delta: O_D=  0.1231480E-13 O_OD= -0.5371354E-13 O_TOT= -0.4152234E-13 <-- DLTA
 ------------------------------------------------------------------------------
 Cycle:     86
  WF centre and spread    1  (  0.000006,  0.000018, 10.000021 )     0.96983756
  WF centre and spread    2  (  1.223643,  0.706481, 10.000083 )     0.96983504
  Sum of centres and spreads (  1.223648,  0.706500, 20.000105 )     1.93967260
 
     86    -0.551E-13     0.0000013004        1.9396725808       2.32  <-- CONV
        O_D=      0.0117104 O_OD=      0.0022640 O_TOT=      1.9396726 <-- SPRD
 Delta: O_D=  0.1645732E-13 O_OD= -0.7151137E-13 O_TOT= -0.5506706E-13 <-- DLTA
 ------------------------------------------------------------------------------
 Cycle:     87
  WF centre and spread    1  (  0.000006,  0.000018, 10.000021 )     0.96983756
  WF centre and spread    2  (  1.223643,  0.706481, 10.000083 )     0.96983504
  Sum of centres and spreads (  1.223648,  0.706500, 20.000105 )     1.93967260
 
     87    -0.684E-13     0.0000012990        1.9396725808       2.32  <-- CONV
        O_D=      0.0117104 O_OD=      0.0022640 O_TOT=      1.9396726 <-- SPRD
 Delta: O_D=  0.2055994E-13 O_OD= -0.8917259E-13 O_TOT= -0.6838974E-13 <-- DLTA
 ------------------------------------------------------------------------------
 Cycle:     88
  WF centre and spread    1  (  0.000006,  0.000018, 10.000021 )     0.96983756
  WF centre and spread    2  (  1.223643,  0.706481, 10.000083 )     0.96983504
  Sum of centres and spreads (  1.223648,  0.706500, 20.000105 )     1.93967260
 
     88    -0.822E-13     0.0000012974        1.9396725808       2.32  <-- CONV
        O_D=      0.0117104 O_OD=      0.0022640 O_TOT=      1.9396726 <-- SPRD
 Delta: O_D=  0.2464348E-13 O_OD= -0.1067263E-12 O_TOT= -0.8215650E-13 <-- DLTA
 ------------------------------------------------------------------------------
 Cycle:     89
  WF centre and spread    1  (  0.000006,  0.000018, 10.000021 )     0.96983756
  WF centre and spread    2  (  1.223643,  0.706481, 10.000083 )     0.96983504
  Sum of centres and spreads (  1.223648,  0.706500, 20.000105 )     1.93967260
 
     89    -0.135E-13     0.0000012954        1.9396725808       2.32  <-- CONV
        O_D=      0.0117104 O_OD=      0.0022640 O_TOT=      1.9396726 <-- SPRD
 Delta: O_D=  0.4121703E-14 O_OD= -0.1780997E-13 O_TOT= -0.1354472E-13 <-- DLTA
 ------------------------------------------------------------------------------
 Cycle:     90
  WF centre and spread    1  (  0.000006,  0.000018, 10.000021 )     0.96983756
  WF centre and spread    2  (  1.223643,  0.706481, 10.000083 )     0.96983504
  Sum of centres and spreads (  1.223648,  0.706500, 20.000105 )     1.93967260
 
     90    -0.273E-13     0.0000012951        1.9396725808       2.32  <-- CONV
        O_D=      0.0117104 O_OD=      0.0022640 O_TOT=      1.9396726 <-- SPRD
 Delta: O_D=  0.8293713E-14 O_OD= -0.3559522E-13 O_TOT= -0.2731149E-13 <-- DLTA
 ------------------------------------------------------------------------------
 Cycle:     91
  WF centre and spread    1  (  0.000006,  0.000018, 10.000021 )     0.96983756
  WF centre and spread    2  (  1.223643,  0.706481, 10.000083 )     0.96983504
  Sum of centres and spreads (  1.223648,  0.706500, 20.000105 )     1.93967260
 
     91    -0.411E-13     0.0000012945        1.9396725808       2.33  <-- CONV
        O_D=      0.0117104 O_OD=      0.0022640 O_TOT=      1.9396726 <-- SPRD
 Delta: O_D=  0.1237725E-13 O_OD= -0.5333884E-13 O_TOT= -0.4107825E-13 <-- DLTA
 ------------------------------------------------------------------------------
 Cycle:     92
  WF centre and spread    1  (  0.000006,  0.000018, 10.000021 )     0.96983756
  WF centre and spread    2  (  1.223643,  0.706481, 10.000083 )     0.96983504
  Sum of centres and spreads (  1.223648,  0.706500, 20.000105 )     1.93967260
 
     92    -0.544E-13     0.0000012936        1.9396725808       2.33  <-- CONV
        O_D=      0.0117104 O_OD=      0.0022640 O_TOT=      1.9396726 <-- SPRD
 Delta: O_D=  0.1649375E-13 O_OD= -0.7101915E-13 O_TOT= -0.5440093E-13 <-- DLTA
 ------------------------------------------------------------------------------
 Cycle:     93
  WF centre and spread    1  (  0.000006,  0.000018, 10.000021 )     0.96983756
  WF centre and spread    2  (  1.223643,  0.706481, 10.000083 )     0.96983504
  Sum of centres and spreads (  1.223648,  0.706500, 20.000105 )     1.93967260
 
     93    -0.679E-13     0.0000012924        1.9396725808       2.33  <-- CONV
        O_D=      0.0117104 O_OD=      0.0022640 O_TOT=      1.9396726 <-- SPRD
 Delta: O_D=  0.2063107E-13 O_OD= -0.8855980E-13 O_TOT= -0.6794565E-13 <-- DLTA
 ------------------------------------------------------------------------------
 Cycle:     94
  WF centre and spread    1  (  0.000006,  0.000018, 10.000021 )     0.96983756
  WF centre and spread    2  (  1.223643,  0.706481, 10.000083 )     0.96983504
  Sum of centres and spreads (  1.223648,  0.706500, 20.000105 )     1.93967260
 
     94    -0.815E-13     0.0000012909        1.9396725808       2.33  <-- CONV
        O_D=      0.0117104 O_OD=      0.0022640 O_TOT=      1.9396726 <-- SPRD
 Delta: O_D=  0.2468165E-13 O_OD= -0.1060259E-12 O_TOT= -0.8149037E-13 <-- DLTA
 ------------------------------------------------------------------------------
 Cycle:     95
  WF centre and spread    1  (  0.000006,  0.000018, 10.000021 )     0.96983756
  WF centre and spread    2  (  1.223643,  0.706481, 10.000083 )     0.96983504
  Sum of centres and spreads (  1.223648,  0.706500, 20.000105 )     1.93967260
 
     95    -0.133E-13     0.0000012892        1.9396725808       2.33  <-- CONV
        O_D=      0.0117104 O_OD=      0.0022640 O_TOT=      1.9396726 <-- SPRD
 Delta: O_D=  0.4196296E-14 O_OD= -0.1767206E-13 O_TOT= -0.1332268E-13 <-- DLTA
 ------------------------------------------------------------------------------
 Cycle:     96
  WF centre and spread    1  (  0.000006,  0.000018, 10.000021 )     0.96983756
  WF centre and spread    2  (  1.223643,  0.706481, 10.000083 )     0.96983504
  Sum of centres and spreads (  1.223648,  0.706500, 20.000105 )     1.93967260
 
     96    -0.273E-13     0.0000012889        1.9396725808       2.33  <-- CONV
        O_D=      0.0117104 O_OD=      0.0022640 O_TOT=      1.9396726 <-- SPRD
 Delta: O_D=  0.8297182E-14 O_OD= -0.3535019E-13 O_TOT= -0.2731149E-13 <-- DLTA
 ------------------------------------------------------------------------------
 Cycle:     97
  WF centre and spread    1  (  0.000006,  0.000018, 10.000021 )     0.96983756
  WF centre and spread    2  (  1.223643,  0.706481, 10.000083 )     0.96983504
  Sum of centres and spreads (  1.223648,  0.706500, 20.000105 )     1.93967260
 
     97    -0.404E-13     0.0000012884        1.9396725808       2.34  <-- CONV
        O_D=      0.0117104 O_OD=      0.0022640 O_TOT=      1.9396726 <-- SPRD
 Delta: O_D=  0.1236337E-13 O_OD= -0.5297629E-13 O_TOT= -0.4041212E-13 <-- DLTA
 ------------------------------------------------------------------------------
 Cycle:     98
  WF centre and spread    1  (  0.000006,  0.000018, 10.000021 )     0.96983756
  WF centre and spread    2  (  1.223643,  0.706481, 10.000083 )     0.96983504
  Sum of centres and spreads (  1.223648,  0.706500, 20.000105 )     1.93967260
 
     98    -0.542E-13     0.0000012875        1.9396725808       2.34  <-- CONV
        O_D=      0.0117104 O_OD=      0.0022640 O_TOT=      1.9396726 <-- SPRD
 Delta: O_D=  0.1653538E-13 O_OD= -0.7052128E-13 O_TOT= -0.5417888E-13 <-- DLTA
 ------------------------------------------------------------------------------
 Cycle:     99
  WF centre and spread    1  (  0.000006,  0.000018, 10.000021 )     0.96983756
  WF centre and spread    2  (  1.223643,  0.706481, 10.000083 )     0.96983504
  Sum of centres and spreads (  1.223648,  0.706500, 20.000105 )     1.93967260
 
     99    -0.673E-13     0.0000012864        1.9396725808       2.34  <-- CONV
        O_D=      0.0117104 O_OD=      0.0022640 O_TOT=      1.9396726 <-- SPRD
 Delta: O_D=  0.2061198E-13 O_OD= -0.8796523E-13 O_TOT= -0.6727952E-13 <-- DLTA
 ------------------------------------------------------------------------------
 Cycle:    100
  WF centre and spread    1  (  0.000006,  0.000018, 10.000021 )     0.96983756
  WF centre and spread    2  (  1.223643,  0.706481, 10.000083 )     0.96983504
  Sum of centres and spreads (  1.223648,  0.706500, 20.000105 )     1.93967260
 
    100    -0.804E-13     0.0000012851        1.9396725808       2.34  <-- CONV
        O_D=      0.0117104 O_OD=      0.0022640 O_TOT=      1.9396726 <-- SPRD
 Delta: O_D=  0.2476665E-13 O_OD= -0.1053051E-12 O_TOT= -0.8038015E-13 <-- DLTA
 ------------------------------------------------------------------------------

 Writing checkpoint file wannier90.chk... done

 Final State
  WF centre and spread    1  (  0.000006,  0.000018, 10.000021 )     0.96983756
  WF centre and spread    2  (  1.223643,  0.706481, 10.000083 )     0.96983504
  Sum of centres and spreads (  1.223648,  0.706500, 20.000105 )     1.93967260
 
         Spreads (Ang^2)       Omega I      =     1.925698200
        ================       Omega D      =     0.011710350
                               Omega OD     =     0.002264030
    Final Spread (Ang^2)       Omega Total  =     1.939672581
 ------------------------------------------------------------------------------
 Time for wannierise            0.208 (sec)

 Writing checkpoint file wannier90.chk... done

 *---------------------------------------------------------------------------*
 |                               PLOTTING                                    |
 *---------------------------------------------------------------------------*
 
 
 Calculating interpolated band-structure
 
 Time to calculate interpolated band structure       0.022 (sec)
 
 Time for plotting              0.061 (sec)
 Total Execution Time           2.945 (sec)

 *===========================================================================*
 |                             TIMING INFORMATION                            |
 *===========================================================================*
 |    Tag                                                Ncalls      Time (s)|
 |---------------------------------------------------------------------------|
 |kmesh: get                                        :         1         0.096|
 |overlap: allocate                                 :         1         0.000|
 |overlap: read                                     :         1         0.394|
 |dis: main                                         :         1         2.137|
 |wann: main                                        :         1         0.208|
 |plot: main                                        :         1         0.061|
 *---------------------------------------------------------------------------*
 
 All done: wannier90 exiting
