 vasp.5.4.4.18Apr17-6-g9f103f2a35 (build Sep 07 2021 20:00:30) complex          
  
 executed on             LinuxIFC date 2021.11.08  10:37:43
 running on   20 total cores
 distrk:  each k-point on   20 cores,    1 groups
 distr:  one band on NCORES_PER_BAND=   1 cores,   20 groups


--------------------------------------------------------------------------------------------------------


 INCAR:
 POTCAR:    PAW C 22Mar2012                       

 ----------------------------------------------------------------------------- 
|                                                                             |
|           W    W    AA    RRRRR   N    N  II  N    N   GGGG   !!!           |
|           W    W   A  A   R    R  NN   N  II  NN   N  G    G  !!!           |
|           W    W  A    A  R    R  N N  N  II  N N  N  G       !!!           |
|           W WW W  AAAAAA  RRRRR   N  N N  II  N  N N  G  GGG   !            |
|           WW  WW  A    A  R   R   N   NN  II  N   NN  G    G                |
|           W    W  A    A  R    R  N    N  II  N    N   GGGG   !!!           |
|                                                                             |
|      For optimal performance we recommend to set                            |
|        NCORE= 4 - approx SQRT( number of cores)                             |
|      NCORE specifies how many cores store one orbital (NPAR=cpu/NCORE).     |
|      This setting can  greatly improve the performance of VASP for DFT.     |
|      The default,   NCORE=1            might be grossly inefficient         |
|      on modern multi-core architectures or massively parallel machines.     |
|      Do your own testing !!!!                                               |
|      Unfortunately you need to use the default for GW and RPA calculations. |
|      (for HF NCORE is supported but not extensively tested yet)             |
|                                                                             |
 ----------------------------------------------------------------------------- 

 POTCAR:    PAW C 22Mar2012                       
   VRHFIN =C: s2p2                                                              
   LEXCH  = CA                                                                  
   EATOM  =   146.6860 eV,   10.7811 Ry                                         
                                                                                
   TITEL  = PAW C 22Mar2012                                                     
   LULTRA =        F    use ultrasoft PP ?                                      
   IUNSCR =        1    unscreen: 0-lin 1-nonlin 2-no                           
   RPACOR =    1.200    partial core radius                                     
   POMASS =   12.011; ZVAL   =    4.000    mass and valenz                      
   RCORE  =    1.500    outmost cutoff radius                                   
   RWIGS  =    1.630; RWIGS  =    0.863    wigner-seitz radius (au A)           
   ENMAX  =  400.000; ENMIN  =  300.000 eV                                      
   ICORE  =        2    local potential                                         
   LCOR   =        T    correct aug charges                                     
   LPAW   =        T    paw PP                                                  
   EAUG   =  644.873                                                            
   DEXC   =    0.000                                                            
   RMAX   =    1.529    core radius for proj-oper                               
   RAUG   =    1.300    factor for augmentation sphere                          
   RDEP   =    1.501    radius for radial grids                                 
   RDEPT  =    1.300    core radius for aug-charge                              
                                                                                
   Atomic configuration                                                         
    4 entries                                                                   
     n  l   j            E        occ.                                          
     1  0  0.50      -270.6511   2.0000                                         
     2  0  0.50       -13.6383   2.0000                                         
     2  1  0.50        -5.4212   2.0000                                         
     3  2  1.50        -5.4423   0.0000                                         
   Description                                                                  
     l       E           TYP  RCUT    TYP  RCUT                                 
     0    -13.6382841     23  1.200                                             
     0     -7.9195854     23  1.200                                             
     1     -5.4211532     23  1.500                                             
     1     34.0145650     23  1.500                                             
     2     -5.4423304      7  1.500                                             
  local pseudopotential read in
  partial core-charges read in
  partial kinetic energy density read in
  kinetic energy density of atom read in
  atomic valenz-charges read in
  non local Contribution for L=           0  read in
    real space projection operators read in
  non local Contribution for L=           0  read in
    real space projection operators read in
  non local Contribution for L=           1  read in
    real space projection operators read in
  non local Contribution for L=           1  read in
    real space projection operators read in
    PAW grid and wavefunctions read in
 
   number of l-projection  operators is LMAX  =           4
   number of lm-projection operators is LMMAX =           8
 
  PAW C 22Mar2012                       :
 energy of atom  1       EATOM= -146.6860
 kinetic energy error for atom=    0.0070 (will be added to EATOM!!)
 
 
 POSCAR:  C                                      
  positions in cartesian coordinates
  No initial velocities read in
 exchange correlation table for  LEXCH =        2
   RHO(1)=    0.500       N(1)  =     2000
   RHO(2)=  100.500       N(2)  =     4000
 


--------------------------------------------------------------------------------------------------------


 ion  position               nearest neighbor table
   1  0.000  0.000  0.000-   2 1.41   2 1.41   2 1.41
   2  0.333  0.667  0.000-   1 1.41   1 1.41   1 1.41
   3  0.333  0.667  0.500-   4 1.41   4 1.41   4 1.41
   4  0.667  0.333  0.500-   3 1.41   3 1.41   3 1.41
 
  LATTYP: Found a hexagonal cell.
 ALAT       =     2.4475419134
 C/A-ratio  =     2.7173352541
  
  Lattice vectors:
  
 A1 = (   2.4475419134,   0.0000000000,   0.0000000000)
 A2 = (  -1.2237709567,   2.1196334738,   0.0000000000)
 A3 = (   0.0000000000,   0.0000000000,   6.6507919270)


Analysis of symmetry for initial positions (statically):
=====================================================================
 Subroutine PRICEL returns:
 Original cell was already a primitive cell.
 

 Routine SETGRP: Setting up the symmetry group for a 
 hexagonal supercell.


 Subroutine GETGRP returns: Found 24 space group operations
 (whereof 12 operations were pure point group operations)
 out of a pool of 24 trial point group operations.


The static configuration has the point symmetry D_3h.
 The point group associated with its full space group is D_6h.


Analysis of symmetry for dynamics (positions and initial velocities):
=====================================================================
 Subroutine PRICEL returns:
 Original cell was already a primitive cell.
 

 Routine SETGRP: Setting up the symmetry group for a 
 hexagonal supercell.


 Subroutine GETGRP returns: Found 24 space group operations
 (whereof 12 operations were pure point group operations)
 out of a pool of 24 trial point group operations.


The dynamic configuration has the point symmetry D_3h.
 The point group associated with its full space group is D_6h.


 Subroutine INISYM returns: Found 24 space group operations
 (whereof 12 operations are pure point group operations),
 and found     1 'primitive' translations

 
 
 KPOINTS: KPOINTS created by Atomic Simulation Env

Automatic generation of k-mesh.
Space group operators:
 irot       det(A)        alpha          n_x          n_y          n_z        tau_x        tau_y        tau_z
    1     1.000000     0.000001     1.000000     0.000000     0.000000     0.000000     0.000000     0.000000
    2    -1.000000    60.000000     0.000000     0.000000    -1.000000     0.000000     0.000000     0.000000
    3     1.000000   120.000000     0.000000     0.000000    -1.000000     0.000000     0.000000     0.000000
    4    -1.000000   180.000000     0.000000     0.000000     1.000000     0.000000     0.000000     0.000000
    5     1.000000   120.000000     0.000000     0.000000     1.000000     0.000000     0.000000     0.000000
    6    -1.000000    60.000000     0.000000     0.000000     1.000000     0.000000     0.000000     0.000000
    7    -1.000000   180.000000     1.000000    -0.000000     0.000000     0.000000     0.000000     0.000000
    8     1.000000   180.000000     0.866025    -0.500000     0.000000     0.000000     0.000000     0.000000
    9    -1.000000   179.999999     0.500000    -0.866025     0.000000     0.000000     0.000000     0.000000
   10     1.000000   180.000000     0.000000     1.000000     0.000000     0.000000     0.000000     0.000000
   11    -1.000000   180.000000    -0.500000    -0.866025     0.000000     0.000000     0.000000     0.000000
   12     1.000000   180.000000     0.866025     0.500000     0.000000     0.000000     0.000000     0.000000
   13    -1.000000     0.000001     1.000000     0.000000     0.000000     0.666667     0.333333     0.500000
   14     1.000000    60.000000     0.000000     0.000000    -1.000000     0.666667     0.333333     0.500000
   15    -1.000000   120.000000     0.000000     0.000000    -1.000000     0.666667     0.333333     0.500000
   16     1.000000   180.000000     0.000000     0.000000     1.000000     0.666667     0.333333     0.500000
   17    -1.000000   120.000000     0.000000     0.000000     1.000000     0.666667     0.333333     0.500000
   18     1.000000    60.000000     0.000000     0.000000     1.000000     0.666667     0.333333     0.500000
   19     1.000000   180.000000     1.000000    -0.000000     0.000000     0.666667     0.333333     0.500000
   20    -1.000000   180.000000     0.866025    -0.500000     0.000000     0.666667     0.333333     0.500000
   21     1.000000   179.999999     0.500000    -0.866025     0.000000     0.666667     0.333333     0.500000
   22    -1.000000   180.000000     0.000000     1.000000     0.000000     0.666667     0.333333     0.500000
   23     1.000000   180.000000    -0.500000    -0.866025     0.000000     0.666667     0.333333     0.500000
   24    -1.000000   180.000000     0.866025     0.500000     0.000000     0.666667     0.333333     0.500000
 
 Subroutine IBZKPT returns following result:
 ===========================================
 
 Found     54 irreducible k-points:
 
 Following reciprocal coordinates:
            Coordinates               Weight
  0.000000  0.000000  0.000000      1.000000
  0.066667  0.000000  0.000000      6.000000
  0.133333  0.000000  0.000000      6.000000
  0.200000  0.000000  0.000000      6.000000
  0.266667  0.000000  0.000000      6.000000
  0.333333 -0.000000  0.000000      6.000000
  0.400000  0.000000  0.000000      6.000000
  0.466667  0.000000  0.000000      6.000000
  0.066667  0.066667  0.000000      6.000000
  0.133333  0.066667  0.000000     12.000000
  0.200000  0.066667  0.000000     12.000000
  0.266667  0.066667  0.000000     12.000000
  0.333333  0.066667  0.000000     12.000000
  0.400000  0.066667  0.000000     12.000000
  0.466667  0.066667  0.000000      6.000000
  0.133333  0.133333  0.000000      6.000000
  0.200000  0.133333  0.000000     12.000000
  0.266667  0.133333  0.000000     12.000000
  0.333333  0.133333  0.000000     12.000000
  0.400000  0.133333  0.000000     12.000000
  0.200000  0.200000  0.000000      6.000000
  0.266667  0.200000  0.000000     12.000000
  0.333333  0.200000  0.000000     12.000000
  0.400000  0.200000  0.000000      6.000000
  0.266667  0.266667  0.000000      6.000000
  0.333333  0.266667  0.000000     12.000000
  0.333333  0.333333  0.000000      2.000000
  0.000000  0.000000  0.333333      2.000000
  0.066667  0.000000  0.333333     12.000000
  0.133333  0.000000  0.333333     12.000000
  0.200000  0.000000  0.333333     12.000000
  0.266667  0.000000  0.333333     12.000000
  0.333333 -0.000000  0.333333     12.000000
  0.400000  0.000000  0.333333     12.000000
  0.466667  0.000000  0.333333     12.000000
  0.066667  0.066667  0.333333     12.000000
  0.133333  0.066667  0.333333     24.000000
  0.200000  0.066667  0.333333     24.000000
  0.266667  0.066667  0.333333     24.000000
  0.333333  0.066667  0.333333     24.000000
  0.400000  0.066667  0.333333     24.000000
  0.466667  0.066667  0.333333     12.000000
  0.133333  0.133333  0.333333     12.000000
  0.200000  0.133333  0.333333     24.000000
  0.266667  0.133333  0.333333     24.000000
  0.333333  0.133333  0.333333     24.000000
  0.400000  0.133333  0.333333     24.000000
  0.200000  0.200000  0.333333     12.000000
  0.266667  0.200000  0.333333     24.000000
  0.333333  0.200000  0.333333     24.000000
  0.400000  0.200000  0.333333     12.000000
  0.266667  0.266667  0.333333     12.000000
  0.333333  0.266667  0.333333     24.000000
  0.333333  0.333333  0.333333      4.000000
 
 Following cartesian coordinates:
            Coordinates               Weight
  0.000000  0.000000  0.000000      1.000000
  0.027238  0.015726  0.000000      6.000000
  0.054476  0.031452  0.000000      6.000000
  0.081715  0.047178  0.000000      6.000000
  0.108953  0.062904  0.000000      6.000000
  0.136191  0.078630  0.000000      6.000000
  0.163429  0.094356  0.000000      6.000000
  0.190667  0.110082  0.000000      6.000000
  0.027238  0.047178  0.000000      6.000000
  0.054476  0.062904  0.000000     12.000000
  0.081715  0.078630  0.000000     12.000000
  0.108953  0.094356  0.000000     12.000000
  0.136191  0.110082  0.000000     12.000000
  0.163429  0.125808  0.000000     12.000000
  0.190667  0.141534  0.000000      6.000000
  0.054476  0.094356  0.000000      6.000000
  0.081715  0.110082  0.000000     12.000000
  0.108953  0.125808  0.000000     12.000000
  0.136191  0.141534  0.000000     12.000000
  0.163429  0.157260  0.000000     12.000000
  0.081715  0.141534  0.000000      6.000000
  0.108953  0.157260  0.000000     12.000000
  0.136191  0.172986  0.000000     12.000000
  0.163429  0.188712  0.000000      6.000000
  0.108953  0.188712  0.000000      6.000000
  0.136191  0.204438  0.000000     12.000000
  0.136191  0.235890  0.000000      2.000000
  0.000000  0.000000  0.050119      2.000000
  0.027238  0.015726  0.050119     12.000000
  0.054476  0.031452  0.050119     12.000000
  0.081715  0.047178  0.050119     12.000000
  0.108953  0.062904  0.050119     12.000000
  0.136191  0.078630  0.050119     12.000000
  0.163429  0.094356  0.050119     12.000000
  0.190667  0.110082  0.050119     12.000000
  0.027238  0.047178  0.050119     12.000000
  0.054476  0.062904  0.050119     24.000000
  0.081715  0.078630  0.050119     24.000000
  0.108953  0.094356  0.050119     24.000000
  0.136191  0.110082  0.050119     24.000000
  0.163429  0.125808  0.050119     24.000000
  0.190667  0.141534  0.050119     12.000000
  0.054476  0.094356  0.050119     12.000000
  0.081715  0.110082  0.050119     24.000000
  0.108953  0.125808  0.050119     24.000000
  0.136191  0.141534  0.050119     24.000000
  0.163429  0.157260  0.050119     24.000000
  0.081715  0.141534  0.050119     12.000000
  0.108953  0.157260  0.050119     24.000000
  0.136191  0.172986  0.050119     24.000000
  0.163429  0.188712  0.050119     12.000000
  0.108953  0.188712  0.050119     12.000000
  0.136191  0.204438  0.050119     24.000000
  0.136191  0.235890  0.050119      4.000000
 
 
 Subroutine IBZKPT_HF returns following result:
 ==============================================
 
 Found    675 k-points in 1st BZ
 the following    675 k-points will be used (e.g. in the exchange kernel)
 Following reciprocal coordinates:   # in IRBZ
  0.000000  0.000000  0.000000    0.00148148   1 t-inv F
  0.066667  0.000000  0.000000    0.00148148   2 t-inv F
  0.133333  0.000000  0.000000    0.00148148   3 t-inv F
  0.200000  0.000000  0.000000    0.00148148   4 t-inv F
  0.266667  0.000000  0.000000    0.00148148   5 t-inv F
  0.333333 -0.000000  0.000000    0.00148148   6 t-inv F
  0.400000  0.000000  0.000000    0.00148148   7 t-inv F
  0.466667  0.000000  0.000000    0.00148148   8 t-inv F
  0.066667  0.066667  0.000000    0.00148148   9 t-inv F
  0.133333  0.066667  0.000000    0.00148148  10 t-inv F
  0.200000  0.066667  0.000000    0.00148148  11 t-inv F
  0.266667  0.066667  0.000000    0.00148148  12 t-inv F
  0.333333  0.066667  0.000000    0.00148148  13 t-inv F
  0.400000  0.066667  0.000000    0.00148148  14 t-inv F
  0.466667  0.066667  0.000000    0.00148148  15 t-inv F
  0.133333  0.133333  0.000000    0.00148148  16 t-inv F
  0.200000  0.133333  0.000000    0.00148148  17 t-inv F
  0.266667  0.133333  0.000000    0.00148148  18 t-inv F
  0.333333  0.133333  0.000000    0.00148148  19 t-inv F
  0.400000  0.133333  0.000000    0.00148148  20 t-inv F
  0.200000  0.200000  0.000000    0.00148148  21 t-inv F
  0.266667  0.200000  0.000000    0.00148148  22 t-inv F
  0.333333  0.200000  0.000000    0.00148148  23 t-inv F
  0.400000  0.200000  0.000000    0.00148148  24 t-inv F
  0.266667  0.266667  0.000000    0.00148148  25 t-inv F
  0.333333  0.266667  0.000000    0.00148148  26 t-inv F
  0.333333  0.333333  0.000000    0.00148148  27 t-inv F
  0.000000  0.000000  0.333333    0.00148148  28 t-inv F
  0.066667  0.000000  0.333333    0.00148148  29 t-inv F
  0.133333  0.000000  0.333333    0.00148148  30 t-inv F
  0.200000  0.000000  0.333333    0.00148148  31 t-inv F
  0.266667  0.000000  0.333333    0.00148148  32 t-inv F
  0.333333 -0.000000  0.333333    0.00148148  33 t-inv F
  0.400000  0.000000  0.333333    0.00148148  34 t-inv F
  0.466667  0.000000  0.333333    0.00148148  35 t-inv F
  0.066667  0.066667  0.333333    0.00148148  36 t-inv F
  0.133333  0.066667  0.333333    0.00148148  37 t-inv F
  0.200000  0.066667  0.333333    0.00148148  38 t-inv F
  0.266667  0.066667  0.333333    0.00148148  39 t-inv F
  0.333333  0.066667  0.333333    0.00148148  40 t-inv F
  0.400000  0.066667  0.333333    0.00148148  41 t-inv F
  0.466667  0.066667  0.333333    0.00148148  42 t-inv F
  0.133333  0.133333  0.333333    0.00148148  43 t-inv F
  0.200000  0.133333  0.333333    0.00148148  44 t-inv F
  0.266667  0.133333  0.333333    0.00148148  45 t-inv F
  0.333333  0.133333  0.333333    0.00148148  46 t-inv F
  0.400000  0.133333  0.333333    0.00148148  47 t-inv F
  0.200000  0.200000  0.333333    0.00148148  48 t-inv F
  0.266667  0.200000  0.333333    0.00148148  49 t-inv F
  0.333333  0.200000  0.333333    0.00148148  50 t-inv F
  0.400000  0.200000  0.333333    0.00148148  51 t-inv F
  0.266667  0.266667  0.333333    0.00148148  52 t-inv F
  0.333333  0.266667  0.333333    0.00148148  53 t-inv F
  0.333333  0.333333  0.333333    0.00148148  54 t-inv F
  0.000000 -0.066667  0.000000    0.00148148   2 t-inv F
 -0.066667  0.066667  0.000000    0.00148148   2 t-inv F
 -0.066667 -0.000000  0.000000    0.00148148   2 t-inv F
 -0.000000  0.066667  0.000000    0.00148148   2 t-inv F
  0.066667 -0.066667  0.000000    0.00148148   2 t-inv F
  0.000000 -0.133333  0.000000    0.00148148   3 t-inv F
 -0.133333  0.133333  0.000000    0.00148148   3 t-inv F
 -0.133333 -0.000000  0.000000    0.00148148   3 t-inv F
 -0.000000  0.133333  0.000000    0.00148148   3 t-inv F
  0.133333 -0.133333  0.000000    0.00148148   3 t-inv F
  0.000000 -0.200000  0.000000    0.00148148   4 t-inv F
 -0.200000  0.200000  0.000000    0.00148148   4 t-inv F
 -0.200000  0.000000  0.000000    0.00148148   4 t-inv F
  0.000000  0.200000  0.000000    0.00148148   4 t-inv F
  0.200000 -0.200000  0.000000    0.00148148   4 t-inv F
  0.000000 -0.266667  0.000000    0.00148148   5 t-inv F
 -0.266667  0.266667  0.000000    0.00148148   5 t-inv F
 -0.266667  0.000000  0.000000    0.00148148   5 t-inv F
  0.000000  0.266667  0.000000    0.00148148   5 t-inv F
  0.266667 -0.266667  0.000000    0.00148148   5 t-inv F
 -0.000000 -0.333333  0.000000    0.00148148   6 t-inv F
 -0.333333  0.333333  0.000000    0.00148148   6 t-inv F
 -0.333333  0.000000  0.000000    0.00148148   6 t-inv F
  0.000000  0.333333  0.000000    0.00148148   6 t-inv F
  0.333333 -0.333333  0.000000    0.00148148   6 t-inv F
  0.000000 -0.400000  0.000000    0.00148148   7 t-inv F
 -0.400000  0.400000  0.000000    0.00148148   7 t-inv F
 -0.400000  0.000000  0.000000    0.00148148   7 t-inv F
  0.000000  0.400000  0.000000    0.00148148   7 t-inv F
  0.400000 -0.400000  0.000000    0.00148148   7 t-inv F
  0.000000 -0.466667  0.000000    0.00148148   8 t-inv F
 -0.466667  0.466667  0.000000    0.00148148   8 t-inv F
 -0.466667  0.000000  0.000000    0.00148148   8 t-inv F
  0.000000  0.466667  0.000000    0.00148148   8 t-inv F
  0.466667 -0.466667  0.000000    0.00148148   8 t-inv F
  0.066667 -0.133333  0.000000    0.00148148   9 t-inv F
 -0.133333  0.066667  0.000000    0.00148148   9 t-inv F
 -0.066667  0.133333  0.000000    0.00148148   9 t-inv F
 -0.066667 -0.066667  0.000000    0.00148148   9 t-inv F
  0.133333 -0.066667  0.000000    0.00148148   9 t-inv F
  0.066667 -0.200000  0.000000    0.00148148  10 t-inv F
 -0.200000  0.133333  0.000000    0.00148148  10 t-inv F
 -0.133333  0.200000  0.000000    0.00148148  10 t-inv F
 -0.066667 -0.133333  0.000000    0.00148148  10 t-inv F
  0.200000 -0.066667  0.000000    0.00148148  10 t-inv F
 -0.133333 -0.066667  0.000000    0.00148148  10 t-inv F
 -0.066667  0.200000  0.000000    0.00148148  10 t-inv F
  0.200000 -0.133333  0.000000    0.00148148  10 t-inv F
  0.133333 -0.200000  0.000000    0.00148148  10 t-inv F
  0.066667  0.133333  0.000000    0.00148148  10 t-inv F
 -0.200000  0.066667  0.000000    0.00148148  10 t-inv F
  0.066667 -0.266667  0.000000    0.00148148  11 t-inv F
 -0.266667  0.200000  0.000000    0.00148148  11 t-inv F
 -0.200000  0.266667  0.000000    0.00148148  11 t-inv F
 -0.066667 -0.200000  0.000000    0.00148148  11 t-inv F
  0.266667 -0.066667  0.000000    0.00148148  11 t-inv F
 -0.200000 -0.066667  0.000000    0.00148148  11 t-inv F
 -0.066667  0.266667  0.000000    0.00148148  11 t-inv F
  0.266667 -0.200000  0.000000    0.00148148  11 t-inv F
  0.200000 -0.266667  0.000000    0.00148148  11 t-inv F
  0.066667  0.200000  0.000000    0.00148148  11 t-inv F
 -0.266667  0.066667  0.000000    0.00148148  11 t-inv F
  0.066667 -0.333333  0.000000    0.00148148  12 t-inv F
 -0.333333  0.266667  0.000000    0.00148148  12 t-inv F
 -0.266667  0.333333  0.000000    0.00148148  12 t-inv F
 -0.066667 -0.266667  0.000000    0.00148148  12 t-inv F
  0.333333 -0.066667  0.000000    0.00148148  12 t-inv F
 -0.266667 -0.066667  0.000000    0.00148148  12 t-inv F
 -0.066667  0.333333  0.000000    0.00148148  12 t-inv F
  0.333333 -0.266667  0.000000    0.00148148  12 t-inv F
  0.266667 -0.333333  0.000000    0.00148148  12 t-inv F
  0.066667  0.266667  0.000000    0.00148148  12 t-inv F
 -0.333333  0.066667  0.000000    0.00148148  12 t-inv F
  0.066667 -0.400000  0.000000    0.00148148  13 t-inv F
 -0.400000  0.333333  0.000000    0.00148148  13 t-inv F
 -0.333333  0.400000  0.000000    0.00148148  13 t-inv F
 -0.066667 -0.333333  0.000000    0.00148148  13 t-inv F
  0.400000 -0.066667  0.000000    0.00148148  13 t-inv F
 -0.333333 -0.066667  0.000000    0.00148148  13 t-inv F
 -0.066667  0.400000  0.000000    0.00148148  13 t-inv F
  0.400000 -0.333333  0.000000    0.00148148  13 t-inv F
  0.333333 -0.400000  0.000000    0.00148148  13 t-inv F
  0.066667  0.333333  0.000000    0.00148148  13 t-inv F
 -0.400000  0.066667  0.000000    0.00148148  13 t-inv F
  0.066667 -0.466667  0.000000    0.00148148  14 t-inv F
 -0.466667  0.400000  0.000000    0.00148148  14 t-inv F
 -0.400000  0.466667  0.000000    0.00148148  14 t-inv F
 -0.066667 -0.400000  0.000000    0.00148148  14 t-inv F
  0.466667 -0.066667  0.000000    0.00148148  14 t-inv F
 -0.400000 -0.066667  0.000000    0.00148148  14 t-inv F
 -0.066667  0.466667  0.000000    0.00148148  14 t-inv F
  0.466667 -0.400000  0.000000    0.00148148  14 t-inv F
  0.400000 -0.466667  0.000000    0.00148148  14 t-inv F
  0.066667  0.400000  0.000000    0.00148148  14 t-inv F
 -0.466667  0.066667  0.000000    0.00148148  14 t-inv F
  0.066667 -0.533333  0.000000    0.00148148  15 t-inv F
 -0.533333  0.466667  0.000000    0.00148148  15 t-inv F
 -0.466667  0.533333  0.000000    0.00148148  15 t-inv F
 -0.066667 -0.466667  0.000000    0.00148148  15 t-inv F
  0.533333 -0.066667  0.000000    0.00148148  15 t-inv F
  0.133333 -0.266667  0.000000    0.00148148  16 t-inv F
 -0.266667  0.133333  0.000000    0.00148148  16 t-inv F
 -0.133333  0.266667  0.000000    0.00148148  16 t-inv F
 -0.133333 -0.133333  0.000000    0.00148148  16 t-inv F
  0.266667 -0.133333  0.000000    0.00148148  16 t-inv F
  0.133333 -0.333333  0.000000    0.00148148  17 t-inv F
 -0.333333  0.200000  0.000000    0.00148148  17 t-inv F
 -0.200000  0.333333  0.000000    0.00148148  17 t-inv F
 -0.133333 -0.200000  0.000000    0.00148148  17 t-inv F
  0.333333 -0.133333  0.000000    0.00148148  17 t-inv F
 -0.200000 -0.133333  0.000000    0.00148148  17 t-inv F
 -0.133333  0.333333  0.000000    0.00148148  17 t-inv F
  0.333333 -0.200000  0.000000    0.00148148  17 t-inv F
  0.200000 -0.333333  0.000000    0.00148148  17 t-inv F
  0.133333  0.200000  0.000000    0.00148148  17 t-inv F
 -0.333333  0.133333  0.000000    0.00148148  17 t-inv F
  0.133333 -0.400000  0.000000    0.00148148  18 t-inv F
 -0.400000  0.266667  0.000000    0.00148148  18 t-inv F
 -0.266667  0.400000  0.000000    0.00148148  18 t-inv F
 -0.133333 -0.266667  0.000000    0.00148148  18 t-inv F
  0.400000 -0.133333  0.000000    0.00148148  18 t-inv F
 -0.266667 -0.133333  0.000000    0.00148148  18 t-inv F
 -0.133333  0.400000  0.000000    0.00148148  18 t-inv F
  0.400000 -0.266667  0.000000    0.00148148  18 t-inv F
  0.266667 -0.400000  0.000000    0.00148148  18 t-inv F
  0.133333  0.266667  0.000000    0.00148148  18 t-inv F
 -0.400000  0.133333  0.000000    0.00148148  18 t-inv F
  0.133333 -0.466667  0.000000    0.00148148  19 t-inv F
 -0.466667  0.333333  0.000000    0.00148148  19 t-inv F
 -0.333333  0.466667  0.000000    0.00148148  19 t-inv F
 -0.133333 -0.333333  0.000000    0.00148148  19 t-inv F
  0.466667 -0.133333  0.000000    0.00148148  19 t-inv F
 -0.333333 -0.133333  0.000000    0.00148148  19 t-inv F
 -0.133333  0.466667  0.000000    0.00148148  19 t-inv F
  0.466667 -0.333333  0.000000    0.00148148  19 t-inv F
  0.333333 -0.466667  0.000000    0.00148148  19 t-inv F
  0.133333  0.333333  0.000000    0.00148148  19 t-inv F
 -0.466667  0.133333  0.000000    0.00148148  19 t-inv F
  0.133333 -0.533333  0.000000    0.00148148  20 t-inv F
 -0.533333  0.400000  0.000000    0.00148148  20 t-inv F
 -0.400000  0.533333  0.000000    0.00148148  20 t-inv F
 -0.133333 -0.400000  0.000000    0.00148148  20 t-inv F
  0.533333 -0.133333  0.000000    0.00148148  20 t-inv F
 -0.400000 -0.133333  0.000000    0.00148148  20 t-inv F
 -0.133333  0.533333  0.000000    0.00148148  20 t-inv F
  0.533333 -0.400000  0.000000    0.00148148  20 t-inv F
  0.400000 -0.533333  0.000000    0.00148148  20 t-inv F
  0.133333  0.400000  0.000000    0.00148148  20 t-inv F
 -0.533333  0.133333  0.000000    0.00148148  20 t-inv F
  0.200000 -0.400000  0.000000    0.00148148  21 t-inv F
 -0.400000  0.200000  0.000000    0.00148148  21 t-inv F
 -0.200000  0.400000  0.000000    0.00148148  21 t-inv F
 -0.200000 -0.200000  0.000000    0.00148148  21 t-inv F
  0.400000 -0.200000  0.000000    0.00148148  21 t-inv F
  0.200000 -0.466667  0.000000    0.00148148  22 t-inv F
 -0.466667  0.266667  0.000000    0.00148148  22 t-inv F
 -0.266667  0.466667  0.000000    0.00148148  22 t-inv F
 -0.200000 -0.266667  0.000000    0.00148148  22 t-inv F
  0.466667 -0.200000  0.000000    0.00148148  22 t-inv F
 -0.266667 -0.200000  0.000000    0.00148148  22 t-inv F
 -0.200000  0.466667  0.000000    0.00148148  22 t-inv F
  0.466667 -0.266667  0.000000    0.00148148  22 t-inv F
  0.266667 -0.466667  0.000000    0.00148148  22 t-inv F
  0.200000  0.266667  0.000000    0.00148148  22 t-inv F
 -0.466667  0.200000  0.000000    0.00148148  22 t-inv F
  0.200000 -0.533333  0.000000    0.00148148  23 t-inv F
 -0.533333  0.333333  0.000000    0.00148148  23 t-inv F
 -0.333333  0.533333  0.000000    0.00148148  23 t-inv F
 -0.200000 -0.333333  0.000000    0.00148148  23 t-inv F
  0.533333 -0.200000  0.000000    0.00148148  23 t-inv F
 -0.333333 -0.200000  0.000000    0.00148148  23 t-inv F
 -0.200000  0.533333  0.000000    0.00148148  23 t-inv F
  0.533333 -0.333333  0.000000    0.00148148  23 t-inv F
  0.333333 -0.533333  0.000000    0.00148148  23 t-inv F
  0.200000  0.333333  0.000000    0.00148148  23 t-inv F
 -0.533333  0.200000  0.000000    0.00148148  23 t-inv F
  0.200000 -0.600000  0.000000    0.00148148  24 t-inv F
 -0.600000  0.400000  0.000000    0.00148148  24 t-inv F
 -0.400000  0.600000  0.000000    0.00148148  24 t-inv F
 -0.200000 -0.400000  0.000000    0.00148148  24 t-inv F
  0.600000 -0.200000  0.000000    0.00148148  24 t-inv F
  0.266667 -0.533333  0.000000    0.00148148  25 t-inv F
 -0.533333  0.266667  0.000000    0.00148148  25 t-inv F
 -0.266667  0.533333  0.000000    0.00148148  25 t-inv F
 -0.266667 -0.266667  0.000000    0.00148148  25 t-inv F
  0.533333 -0.266667  0.000000    0.00148148  25 t-inv F
  0.266667 -0.600000  0.000000    0.00148148  26 t-inv F
 -0.600000  0.333333  0.000000    0.00148148  26 t-inv F
 -0.333333  0.600000  0.000000    0.00148148  26 t-inv F
 -0.266667 -0.333333  0.000000    0.00148148  26 t-inv F
  0.600000 -0.266667  0.000000    0.00148148  26 t-inv F
 -0.333333 -0.266667  0.000000    0.00148148  26 t-inv F
 -0.266667  0.600000  0.000000    0.00148148  26 t-inv F
  0.600000 -0.333333  0.000000    0.00148148  26 t-inv F
  0.333333 -0.600000  0.000000    0.00148148  26 t-inv F
  0.266667  0.333333  0.000000    0.00148148  26 t-inv F
 -0.600000  0.266667  0.000000    0.00148148  26 t-inv F
 -0.333333  0.666667  0.000000    0.00148148  27 t-inv F
  0.000000  0.000000 -0.333333    0.00148148  28 t-inv F
  0.000000 -0.066667 -0.333333    0.00148148  29 t-inv F
 -0.066667  0.066667  0.333333    0.00148148  29 t-inv F
  0.066667  0.000000 -0.333333    0.00148148  29 t-inv F
  0.000000 -0.066667  0.333333    0.00148148  29 t-inv F
 -0.066667  0.066667 -0.333333    0.00148148  29 t-inv F
 -0.066667 -0.000000 -0.333333    0.00148148  29 t-inv F
 -0.000000  0.066667  0.333333    0.00148148  29 t-inv F
  0.066667 -0.066667 -0.333333    0.00148148  29 t-inv F
 -0.066667 -0.000000  0.333333    0.00148148  29 t-inv F
 -0.000000  0.066667 -0.333333    0.00148148  29 t-inv F
  0.066667 -0.066667  0.333333    0.00148148  29 t-inv F
  0.000000 -0.133333 -0.333333    0.00148148  30 t-inv F
 -0.133333  0.133333  0.333333    0.00148148  30 t-inv F
  0.133333  0.000000 -0.333333    0.00148148  30 t-inv F
  0.000000 -0.133333  0.333333    0.00148148  30 t-inv F
 -0.133333  0.133333 -0.333333    0.00148148  30 t-inv F
 -0.133333 -0.000000 -0.333333    0.00148148  30 t-inv F
 -0.000000  0.133333  0.333333    0.00148148  30 t-inv F
  0.133333 -0.133333 -0.333333    0.00148148  30 t-inv F
 -0.133333 -0.000000  0.333333    0.00148148  30 t-inv F
 -0.000000  0.133333 -0.333333    0.00148148  30 t-inv F
  0.133333 -0.133333  0.333333    0.00148148  30 t-inv F
  0.000000 -0.200000 -0.333333    0.00148148  31 t-inv F
 -0.200000  0.200000  0.333333    0.00148148  31 t-inv F
  0.200000  0.000000 -0.333333    0.00148148  31 t-inv F
  0.000000 -0.200000  0.333333    0.00148148  31 t-inv F
 -0.200000  0.200000 -0.333333    0.00148148  31 t-inv F
 -0.200000  0.000000 -0.333333    0.00148148  31 t-inv F
  0.000000  0.200000  0.333333    0.00148148  31 t-inv F
  0.200000 -0.200000 -0.333333    0.00148148  31 t-inv F
 -0.200000  0.000000  0.333333    0.00148148  31 t-inv F
  0.000000  0.200000 -0.333333    0.00148148  31 t-inv F
  0.200000 -0.200000  0.333333    0.00148148  31 t-inv F
  0.000000 -0.266667 -0.333333    0.00148148  32 t-inv F
 -0.266667  0.266667  0.333333    0.00148148  32 t-inv F
  0.266667  0.000000 -0.333333    0.00148148  32 t-inv F
  0.000000 -0.266667  0.333333    0.00148148  32 t-inv F
 -0.266667  0.266667 -0.333333    0.00148148  32 t-inv F
 -0.266667  0.000000 -0.333333    0.00148148  32 t-inv F
  0.000000  0.266667  0.333333    0.00148148  32 t-inv F
  0.266667 -0.266667 -0.333333    0.00148148  32 t-inv F
 -0.266667  0.000000  0.333333    0.00148148  32 t-inv F
  0.000000  0.266667 -0.333333    0.00148148  32 t-inv F
  0.266667 -0.266667  0.333333    0.00148148  32 t-inv F
 -0.000000 -0.333333 -0.333333    0.00148148  33 t-inv F
 -0.333333  0.333333  0.333333    0.00148148  33 t-inv F
  0.333333 -0.000000 -0.333333    0.00148148  33 t-inv F
 -0.000000 -0.333333  0.333333    0.00148148  33 t-inv F
 -0.333333  0.333333 -0.333333    0.00148148  33 t-inv F
 -0.333333  0.000000 -0.333333    0.00148148  33 t-inv F
  0.000000  0.333333  0.333333    0.00148148  33 t-inv F
  0.333333 -0.333333 -0.333333    0.00148148  33 t-inv F
 -0.333333  0.000000  0.333333    0.00148148  33 t-inv F
  0.000000  0.333333 -0.333333    0.00148148  33 t-inv F
  0.333333 -0.333333  0.333333    0.00148148  33 t-inv F
  0.000000 -0.400000 -0.333333    0.00148148  34 t-inv F
 -0.400000  0.400000  0.333333    0.00148148  34 t-inv F
  0.400000  0.000000 -0.333333    0.00148148  34 t-inv F
  0.000000 -0.400000  0.333333    0.00148148  34 t-inv F
 -0.400000  0.400000 -0.333333    0.00148148  34 t-inv F
 -0.400000  0.000000 -0.333333    0.00148148  34 t-inv F
  0.000000  0.400000  0.333333    0.00148148  34 t-inv F
  0.400000 -0.400000 -0.333333    0.00148148  34 t-inv F
 -0.400000  0.000000  0.333333    0.00148148  34 t-inv F
  0.000000  0.400000 -0.333333    0.00148148  34 t-inv F
  0.400000 -0.400000  0.333333    0.00148148  34 t-inv F
  0.000000 -0.466667 -0.333333    0.00148148  35 t-inv F
 -0.466667  0.466667  0.333333    0.00148148  35 t-inv F
  0.466667  0.000000 -0.333333    0.00148148  35 t-inv F
  0.000000 -0.466667  0.333333    0.00148148  35 t-inv F
 -0.466667  0.466667 -0.333333    0.00148148  35 t-inv F
 -0.466667  0.000000 -0.333333    0.00148148  35 t-inv F
  0.000000  0.466667  0.333333    0.00148148  35 t-inv F
  0.466667 -0.466667 -0.333333    0.00148148  35 t-inv F
 -0.466667  0.000000  0.333333    0.00148148  35 t-inv F
  0.000000  0.466667 -0.333333    0.00148148  35 t-inv F
  0.466667 -0.466667  0.333333    0.00148148  35 t-inv F
  0.066667 -0.133333 -0.333333    0.00148148  36 t-inv F
 -0.133333  0.066667  0.333333    0.00148148  36 t-inv F
  0.066667  0.066667 -0.333333    0.00148148  36 t-inv F
  0.066667 -0.133333  0.333333    0.00148148  36 t-inv F
 -0.133333  0.066667 -0.333333    0.00148148  36 t-inv F
 -0.066667  0.133333  0.333333    0.00148148  36 t-inv F
 -0.066667 -0.066667 -0.333333    0.00148148  36 t-inv F
  0.133333 -0.066667  0.333333    0.00148148  36 t-inv F
 -0.066667  0.133333 -0.333333    0.00148148  36 t-inv F
 -0.066667 -0.066667  0.333333    0.00148148  36 t-inv F
  0.133333 -0.066667 -0.333333    0.00148148  36 t-inv F
  0.066667 -0.200000 -0.333333    0.00148148  37 t-inv F
 -0.200000  0.133333  0.333333    0.00148148  37 t-inv F
  0.133333  0.066667 -0.333333    0.00148148  37 t-inv F
  0.066667 -0.200000  0.333333    0.00148148  37 t-inv F
 -0.200000  0.133333 -0.333333    0.00148148  37 t-inv F
 -0.133333  0.200000  0.333333    0.00148148  37 t-inv F
 -0.066667 -0.133333 -0.333333    0.00148148  37 t-inv F
  0.200000 -0.066667  0.333333    0.00148148  37 t-inv F
 -0.133333  0.200000 -0.333333    0.00148148  37 t-inv F
 -0.066667 -0.133333  0.333333    0.00148148  37 t-inv F
  0.200000 -0.066667 -0.333333    0.00148148  37 t-inv F
 -0.133333 -0.066667 -0.333333    0.00148148  37 t-inv F
 -0.066667  0.200000  0.333333    0.00148148  37 t-inv F
  0.200000 -0.133333 -0.333333    0.00148148  37 t-inv F
 -0.133333 -0.066667  0.333333    0.00148148  37 t-inv F
 -0.066667  0.200000 -0.333333    0.00148148  37 t-inv F
  0.200000 -0.133333  0.333333    0.00148148  37 t-inv F
  0.133333 -0.200000 -0.333333    0.00148148  37 t-inv F
  0.066667  0.133333  0.333333    0.00148148  37 t-inv F
 -0.200000  0.066667 -0.333333    0.00148148  37 t-inv F
  0.133333 -0.200000  0.333333    0.00148148  37 t-inv F
  0.066667  0.133333 -0.333333    0.00148148  37 t-inv F
 -0.200000  0.066667  0.333333    0.00148148  37 t-inv F
  0.066667 -0.266667 -0.333333    0.00148148  38 t-inv F
 -0.266667  0.200000  0.333333    0.00148148  38 t-inv F
  0.200000  0.066667 -0.333333    0.00148148  38 t-inv F
  0.066667 -0.266667  0.333333    0.00148148  38 t-inv F
 -0.266667  0.200000 -0.333333    0.00148148  38 t-inv F
 -0.200000  0.266667  0.333333    0.00148148  38 t-inv F
 -0.066667 -0.200000 -0.333333    0.00148148  38 t-inv F
  0.266667 -0.066667  0.333333    0.00148148  38 t-inv F
 -0.200000  0.266667 -0.333333    0.00148148  38 t-inv F
 -0.066667 -0.200000  0.333333    0.00148148  38 t-inv F
  0.266667 -0.066667 -0.333333    0.00148148  38 t-inv F
 -0.200000 -0.066667 -0.333333    0.00148148  38 t-inv F
 -0.066667  0.266667  0.333333    0.00148148  38 t-inv F
  0.266667 -0.200000 -0.333333    0.00148148  38 t-inv F
 -0.200000 -0.066667  0.333333    0.00148148  38 t-inv F
 -0.066667  0.266667 -0.333333    0.00148148  38 t-inv F
  0.266667 -0.200000  0.333333    0.00148148  38 t-inv F
  0.200000 -0.266667 -0.333333    0.00148148  38 t-inv F
  0.066667  0.200000  0.333333    0.00148148  38 t-inv F
 -0.266667  0.066667 -0.333333    0.00148148  38 t-inv F
  0.200000 -0.266667  0.333333    0.00148148  38 t-inv F
  0.066667  0.200000 -0.333333    0.00148148  38 t-inv F
 -0.266667  0.066667  0.333333    0.00148148  38 t-inv F
  0.066667 -0.333333 -0.333333    0.00148148  39 t-inv F
 -0.333333  0.266667  0.333333    0.00148148  39 t-inv F
  0.266667  0.066667 -0.333333    0.00148148  39 t-inv F
  0.066667 -0.333333  0.333333    0.00148148  39 t-inv F
 -0.333333  0.266667 -0.333333    0.00148148  39 t-inv F
 -0.266667  0.333333  0.333333    0.00148148  39 t-inv F
 -0.066667 -0.266667 -0.333333    0.00148148  39 t-inv F
  0.333333 -0.066667  0.333333    0.00148148  39 t-inv F
 -0.266667  0.333333 -0.333333    0.00148148  39 t-inv F
 -0.066667 -0.266667  0.333333    0.00148148  39 t-inv F
  0.333333 -0.066667 -0.333333    0.00148148  39 t-inv F
 -0.266667 -0.066667 -0.333333    0.00148148  39 t-inv F
 -0.066667  0.333333  0.333333    0.00148148  39 t-inv F
  0.333333 -0.266667 -0.333333    0.00148148  39 t-inv F
 -0.266667 -0.066667  0.333333    0.00148148  39 t-inv F
 -0.066667  0.333333 -0.333333    0.00148148  39 t-inv F
  0.333333 -0.266667  0.333333    0.00148148  39 t-inv F
  0.266667 -0.333333 -0.333333    0.00148148  39 t-inv F
  0.066667  0.266667  0.333333    0.00148148  39 t-inv F
 -0.333333  0.066667 -0.333333    0.00148148  39 t-inv F
  0.266667 -0.333333  0.333333    0.00148148  39 t-inv F
  0.066667  0.266667 -0.333333    0.00148148  39 t-inv F
 -0.333333  0.066667  0.333333    0.00148148  39 t-inv F
  0.066667 -0.400000 -0.333333    0.00148148  40 t-inv F
 -0.400000  0.333333  0.333333    0.00148148  40 t-inv F
  0.333333  0.066667 -0.333333    0.00148148  40 t-inv F
  0.066667 -0.400000  0.333333    0.00148148  40 t-inv F
 -0.400000  0.333333 -0.333333    0.00148148  40 t-inv F
 -0.333333  0.400000  0.333333    0.00148148  40 t-inv F
 -0.066667 -0.333333 -0.333333    0.00148148  40 t-inv F
  0.400000 -0.066667  0.333333    0.00148148  40 t-inv F
 -0.333333  0.400000 -0.333333    0.00148148  40 t-inv F
 -0.066667 -0.333333  0.333333    0.00148148  40 t-inv F
  0.400000 -0.066667 -0.333333    0.00148148  40 t-inv F
 -0.333333 -0.066667 -0.333333    0.00148148  40 t-inv F
 -0.066667  0.400000  0.333333    0.00148148  40 t-inv F
  0.400000 -0.333333 -0.333333    0.00148148  40 t-inv F
 -0.333333 -0.066667  0.333333    0.00148148  40 t-inv F
 -0.066667  0.400000 -0.333333    0.00148148  40 t-inv F
  0.400000 -0.333333  0.333333    0.00148148  40 t-inv F
  0.333333 -0.400000 -0.333333    0.00148148  40 t-inv F
  0.066667  0.333333  0.333333    0.00148148  40 t-inv F
 -0.400000  0.066667 -0.333333    0.00148148  40 t-inv F
  0.333333 -0.400000  0.333333    0.00148148  40 t-inv F
  0.066667  0.333333 -0.333333    0.00148148  40 t-inv F
 -0.400000  0.066667  0.333333    0.00148148  40 t-inv F
  0.066667 -0.466667 -0.333333    0.00148148  41 t-inv F
 -0.466667  0.400000  0.333333    0.00148148  41 t-inv F
  0.400000  0.066667 -0.333333    0.00148148  41 t-inv F
  0.066667 -0.466667  0.333333    0.00148148  41 t-inv F
 -0.466667  0.400000 -0.333333    0.00148148  41 t-inv F
 -0.400000  0.466667  0.333333    0.00148148  41 t-inv F
 -0.066667 -0.400000 -0.333333    0.00148148  41 t-inv F
  0.466667 -0.066667  0.333333    0.00148148  41 t-inv F
 -0.400000  0.466667 -0.333333    0.00148148  41 t-inv F
 -0.066667 -0.400000  0.333333    0.00148148  41 t-inv F
  0.466667 -0.066667 -0.333333    0.00148148  41 t-inv F
 -0.400000 -0.066667 -0.333333    0.00148148  41 t-inv F
 -0.066667  0.466667  0.333333    0.00148148  41 t-inv F
  0.466667 -0.400000 -0.333333    0.00148148  41 t-inv F
 -0.400000 -0.066667  0.333333    0.00148148  41 t-inv F
 -0.066667  0.466667 -0.333333    0.00148148  41 t-inv F
  0.466667 -0.400000  0.333333    0.00148148  41 t-inv F
  0.400000 -0.466667 -0.333333    0.00148148  41 t-inv F
  0.066667  0.400000  0.333333    0.00148148  41 t-inv F
 -0.466667  0.066667 -0.333333    0.00148148  41 t-inv F
  0.400000 -0.466667  0.333333    0.00148148  41 t-inv F
  0.066667  0.400000 -0.333333    0.00148148  41 t-inv F
 -0.466667  0.066667  0.333333    0.00148148  41 t-inv F
  0.066667 -0.533333 -0.333333    0.00148148  42 t-inv F
 -0.533333  0.466667  0.333333    0.00148148  42 t-inv F
  0.466667  0.066667 -0.333333    0.00148148  42 t-inv F
  0.066667 -0.533333  0.333333    0.00148148  42 t-inv F
 -0.533333  0.466667 -0.333333    0.00148148  42 t-inv F
 -0.466667  0.533333  0.333333    0.00148148  42 t-inv F
 -0.066667 -0.466667 -0.333333    0.00148148  42 t-inv F
  0.533333 -0.066667  0.333333    0.00148148  42 t-inv F
 -0.466667  0.533333 -0.333333    0.00148148  42 t-inv F
 -0.066667 -0.466667  0.333333    0.00148148  42 t-inv F
  0.533333 -0.066667 -0.333333    0.00148148  42 t-inv F
  0.133333 -0.266667 -0.333333    0.00148148  43 t-inv F
 -0.266667  0.133333  0.333333    0.00148148  43 t-inv F
  0.133333  0.133333 -0.333333    0.00148148  43 t-inv F
  0.133333 -0.266667  0.333333    0.00148148  43 t-inv F
 -0.266667  0.133333 -0.333333    0.00148148  43 t-inv F
 -0.133333  0.266667  0.333333    0.00148148  43 t-inv F
 -0.133333 -0.133333 -0.333333    0.00148148  43 t-inv F
  0.266667 -0.133333  0.333333    0.00148148  43 t-inv F
 -0.133333  0.266667 -0.333333    0.00148148  43 t-inv F
 -0.133333 -0.133333  0.333333    0.00148148  43 t-inv F
  0.266667 -0.133333 -0.333333    0.00148148  43 t-inv F
  0.133333 -0.333333 -0.333333    0.00148148  44 t-inv F
 -0.333333  0.200000  0.333333    0.00148148  44 t-inv F
  0.200000  0.133333 -0.333333    0.00148148  44 t-inv F
  0.133333 -0.333333  0.333333    0.00148148  44 t-inv F
 -0.333333  0.200000 -0.333333    0.00148148  44 t-inv F
 -0.200000  0.333333  0.333333    0.00148148  44 t-inv F
 -0.133333 -0.200000 -0.333333    0.00148148  44 t-inv F
  0.333333 -0.133333  0.333333    0.00148148  44 t-inv F
 -0.200000  0.333333 -0.333333    0.00148148  44 t-inv F
 -0.133333 -0.200000  0.333333    0.00148148  44 t-inv F
  0.333333 -0.133333 -0.333333    0.00148148  44 t-inv F
 -0.200000 -0.133333 -0.333333    0.00148148  44 t-inv F
 -0.133333  0.333333  0.333333    0.00148148  44 t-inv F
  0.333333 -0.200000 -0.333333    0.00148148  44 t-inv F
 -0.200000 -0.133333  0.333333    0.00148148  44 t-inv F
 -0.133333  0.333333 -0.333333    0.00148148  44 t-inv F
  0.333333 -0.200000  0.333333    0.00148148  44 t-inv F
  0.200000 -0.333333 -0.333333    0.00148148  44 t-inv F
  0.133333  0.200000  0.333333    0.00148148  44 t-inv F
 -0.333333  0.133333 -0.333333    0.00148148  44 t-inv F
  0.200000 -0.333333  0.333333    0.00148148  44 t-inv F
  0.133333  0.200000 -0.333333    0.00148148  44 t-inv F
 -0.333333  0.133333  0.333333    0.00148148  44 t-inv F
  0.133333 -0.400000 -0.333333    0.00148148  45 t-inv F
 -0.400000  0.266667  0.333333    0.00148148  45 t-inv F
  0.266667  0.133333 -0.333333    0.00148148  45 t-inv F
  0.133333 -0.400000  0.333333    0.00148148  45 t-inv F
 -0.400000  0.266667 -0.333333    0.00148148  45 t-inv F
 -0.266667  0.400000  0.333333    0.00148148  45 t-inv F
 -0.133333 -0.266667 -0.333333    0.00148148  45 t-inv F
  0.400000 -0.133333  0.333333    0.00148148  45 t-inv F
 -0.266667  0.400000 -0.333333    0.00148148  45 t-inv F
 -0.133333 -0.266667  0.333333    0.00148148  45 t-inv F
  0.400000 -0.133333 -0.333333    0.00148148  45 t-inv F
 -0.266667 -0.133333 -0.333333    0.00148148  45 t-inv F
 -0.133333  0.400000  0.333333    0.00148148  45 t-inv F
  0.400000 -0.266667 -0.333333    0.00148148  45 t-inv F
 -0.266667 -0.133333  0.333333    0.00148148  45 t-inv F
 -0.133333  0.400000 -0.333333    0.00148148  45 t-inv F
  0.400000 -0.266667  0.333333    0.00148148  45 t-inv F
  0.266667 -0.400000 -0.333333    0.00148148  45 t-inv F
  0.133333  0.266667  0.333333    0.00148148  45 t-inv F
 -0.400000  0.133333 -0.333333    0.00148148  45 t-inv F
  0.266667 -0.400000  0.333333    0.00148148  45 t-inv F
  0.133333  0.266667 -0.333333    0.00148148  45 t-inv F
 -0.400000  0.133333  0.333333    0.00148148  45 t-inv F
  0.133333 -0.466667 -0.333333    0.00148148  46 t-inv F
 -0.466667  0.333333  0.333333    0.00148148  46 t-inv F
  0.333333  0.133333 -0.333333    0.00148148  46 t-inv F
  0.133333 -0.466667  0.333333    0.00148148  46 t-inv F
 -0.466667  0.333333 -0.333333    0.00148148  46 t-inv F
 -0.333333  0.466667  0.333333    0.00148148  46 t-inv F
 -0.133333 -0.333333 -0.333333    0.00148148  46 t-inv F
  0.466667 -0.133333  0.333333    0.00148148  46 t-inv F
 -0.333333  0.466667 -0.333333    0.00148148  46 t-inv F
 -0.133333 -0.333333  0.333333    0.00148148  46 t-inv F
  0.466667 -0.133333 -0.333333    0.00148148  46 t-inv F
 -0.333333 -0.133333 -0.333333    0.00148148  46 t-inv F
 -0.133333  0.466667  0.333333    0.00148148  46 t-inv F
  0.466667 -0.333333 -0.333333    0.00148148  46 t-inv F
 -0.333333 -0.133333  0.333333    0.00148148  46 t-inv F
 -0.133333  0.466667 -0.333333    0.00148148  46 t-inv F
  0.466667 -0.333333  0.333333    0.00148148  46 t-inv F
  0.333333 -0.466667 -0.333333    0.00148148  46 t-inv F
  0.133333  0.333333  0.333333    0.00148148  46 t-inv F
 -0.466667  0.133333 -0.333333    0.00148148  46 t-inv F
  0.333333 -0.466667  0.333333    0.00148148  46 t-inv F
  0.133333  0.333333 -0.333333    0.00148148  46 t-inv F
 -0.466667  0.133333  0.333333    0.00148148  46 t-inv F
  0.133333 -0.533333 -0.333333    0.00148148  47 t-inv F
 -0.533333  0.400000  0.333333    0.00148148  47 t-inv F
  0.400000  0.133333 -0.333333    0.00148148  47 t-inv F
  0.133333 -0.533333  0.333333    0.00148148  47 t-inv F
 -0.533333  0.400000 -0.333333    0.00148148  47 t-inv F
 -0.400000  0.533333  0.333333    0.00148148  47 t-inv F
 -0.133333 -0.400000 -0.333333    0.00148148  47 t-inv F
  0.533333 -0.133333  0.333333    0.00148148  47 t-inv F
 -0.400000  0.533333 -0.333333    0.00148148  47 t-inv F
 -0.133333 -0.400000  0.333333    0.00148148  47 t-inv F
  0.533333 -0.133333 -0.333333    0.00148148  47 t-inv F
 -0.400000 -0.133333 -0.333333    0.00148148  47 t-inv F
 -0.133333  0.533333  0.333333    0.00148148  47 t-inv F
  0.533333 -0.400000 -0.333333    0.00148148  47 t-inv F
 -0.400000 -0.133333  0.333333    0.00148148  47 t-inv F
 -0.133333  0.533333 -0.333333    0.00148148  47 t-inv F
  0.533333 -0.400000  0.333333    0.00148148  47 t-inv F
  0.400000 -0.533333 -0.333333    0.00148148  47 t-inv F
  0.133333  0.400000  0.333333    0.00148148  47 t-inv F
 -0.533333  0.133333 -0.333333    0.00148148  47 t-inv F
  0.400000 -0.533333  0.333333    0.00148148  47 t-inv F
  0.133333  0.400000 -0.333333    0.00148148  47 t-inv F
 -0.533333  0.133333  0.333333    0.00148148  47 t-inv F
  0.200000 -0.400000 -0.333333    0.00148148  48 t-inv F
 -0.400000  0.200000  0.333333    0.00148148  48 t-inv F
  0.200000  0.200000 -0.333333    0.00148148  48 t-inv F
  0.200000 -0.400000  0.333333    0.00148148  48 t-inv F
 -0.400000  0.200000 -0.333333    0.00148148  48 t-inv F
 -0.200000  0.400000  0.333333    0.00148148  48 t-inv F
 -0.200000 -0.200000 -0.333333    0.00148148  48 t-inv F
  0.400000 -0.200000  0.333333    0.00148148  48 t-inv F
 -0.200000  0.400000 -0.333333    0.00148148  48 t-inv F
 -0.200000 -0.200000  0.333333    0.00148148  48 t-inv F
  0.400000 -0.200000 -0.333333    0.00148148  48 t-inv F
  0.200000 -0.466667 -0.333333    0.00148148  49 t-inv F
 -0.466667  0.266667  0.333333    0.00148148  49 t-inv F
  0.266667  0.200000 -0.333333    0.00148148  49 t-inv F
  0.200000 -0.466667  0.333333    0.00148148  49 t-inv F
 -0.466667  0.266667 -0.333333    0.00148148  49 t-inv F
 -0.266667  0.466667  0.333333    0.00148148  49 t-inv F
 -0.200000 -0.266667 -0.333333    0.00148148  49 t-inv F
  0.466667 -0.200000  0.333333    0.00148148  49 t-inv F
 -0.266667  0.466667 -0.333333    0.00148148  49 t-inv F
 -0.200000 -0.266667  0.333333    0.00148148  49 t-inv F
  0.466667 -0.200000 -0.333333    0.00148148  49 t-inv F
 -0.266667 -0.200000 -0.333333    0.00148148  49 t-inv F
 -0.200000  0.466667  0.333333    0.00148148  49 t-inv F
  0.466667 -0.266667 -0.333333    0.00148148  49 t-inv F
 -0.266667 -0.200000  0.333333    0.00148148  49 t-inv F
 -0.200000  0.466667 -0.333333    0.00148148  49 t-inv F
  0.466667 -0.266667  0.333333    0.00148148  49 t-inv F
  0.266667 -0.466667 -0.333333    0.00148148  49 t-inv F
  0.200000  0.266667  0.333333    0.00148148  49 t-inv F
 -0.466667  0.200000 -0.333333    0.00148148  49 t-inv F
  0.266667 -0.466667  0.333333    0.00148148  49 t-inv F
  0.200000  0.266667 -0.333333    0.00148148  49 t-inv F
 -0.466667  0.200000  0.333333    0.00148148  49 t-inv F
  0.200000 -0.533333 -0.333333    0.00148148  50 t-inv F
 -0.533333  0.333333  0.333333    0.00148148  50 t-inv F
  0.333333  0.200000 -0.333333    0.00148148  50 t-inv F
  0.200000 -0.533333  0.333333    0.00148148  50 t-inv F
 -0.533333  0.333333 -0.333333    0.00148148  50 t-inv F
 -0.333333  0.533333  0.333333    0.00148148  50 t-inv F
 -0.200000 -0.333333 -0.333333    0.00148148  50 t-inv F
  0.533333 -0.200000  0.333333    0.00148148  50 t-inv F
 -0.333333  0.533333 -0.333333    0.00148148  50 t-inv F
 -0.200000 -0.333333  0.333333    0.00148148  50 t-inv F
  0.533333 -0.200000 -0.333333    0.00148148  50 t-inv F
 -0.333333 -0.200000 -0.333333    0.00148148  50 t-inv F
 -0.200000  0.533333  0.333333    0.00148148  50 t-inv F
  0.533333 -0.333333 -0.333333    0.00148148  50 t-inv F
 -0.333333 -0.200000  0.333333    0.00148148  50 t-inv F
 -0.200000  0.533333 -0.333333    0.00148148  50 t-inv F
  0.533333 -0.333333  0.333333    0.00148148  50 t-inv F
  0.333333 -0.533333 -0.333333    0.00148148  50 t-inv F
  0.200000  0.333333  0.333333    0.00148148  50 t-inv F
 -0.533333  0.200000 -0.333333    0.00148148  50 t-inv F
  0.333333 -0.533333  0.333333    0.00148148  50 t-inv F
  0.200000  0.333333 -0.333333    0.00148148  50 t-inv F
 -0.533333  0.200000  0.333333    0.00148148  50 t-inv F
  0.200000 -0.600000 -0.333333    0.00148148  51 t-inv F
 -0.600000  0.400000  0.333333    0.00148148  51 t-inv F
  0.400000  0.200000 -0.333333    0.00148148  51 t-inv F
  0.200000 -0.600000  0.333333    0.00148148  51 t-inv F
 -0.600000  0.400000 -0.333333    0.00148148  51 t-inv F
 -0.400000  0.600000  0.333333    0.00148148  51 t-inv F
 -0.200000 -0.400000 -0.333333    0.00148148  51 t-inv F
  0.600000 -0.200000  0.333333    0.00148148  51 t-inv F
 -0.400000  0.600000 -0.333333    0.00148148  51 t-inv F
 -0.200000 -0.400000  0.333333    0.00148148  51 t-inv F
  0.600000 -0.200000 -0.333333    0.00148148  51 t-inv F
  0.266667 -0.533333 -0.333333    0.00148148  52 t-inv F
 -0.533333  0.266667  0.333333    0.00148148  52 t-inv F
  0.266667  0.266667 -0.333333    0.00148148  52 t-inv F
  0.266667 -0.533333  0.333333    0.00148148  52 t-inv F
 -0.533333  0.266667 -0.333333    0.00148148  52 t-inv F
 -0.266667  0.533333  0.333333    0.00148148  52 t-inv F
 -0.266667 -0.266667 -0.333333    0.00148148  52 t-inv F
  0.533333 -0.266667  0.333333    0.00148148  52 t-inv F
 -0.266667  0.533333 -0.333333    0.00148148  52 t-inv F
 -0.266667 -0.266667  0.333333    0.00148148  52 t-inv F
  0.533333 -0.266667 -0.333333    0.00148148  52 t-inv F
  0.266667 -0.600000 -0.333333    0.00148148  53 t-inv F
 -0.600000  0.333333  0.333333    0.00148148  53 t-inv F
  0.333333  0.266667 -0.333333    0.00148148  53 t-inv F
  0.266667 -0.600000  0.333333    0.00148148  53 t-inv F
 -0.600000  0.333333 -0.333333    0.00148148  53 t-inv F
 -0.333333  0.600000  0.333333    0.00148148  53 t-inv F
 -0.266667 -0.333333 -0.333333    0.00148148  53 t-inv F
  0.600000 -0.266667  0.333333    0.00148148  53 t-inv F
 -0.333333  0.600000 -0.333333    0.00148148  53 t-inv F
 -0.266667 -0.333333  0.333333    0.00148148  53 t-inv F
  0.600000 -0.266667 -0.333333    0.00148148  53 t-inv F
 -0.333333 -0.266667 -0.333333    0.00148148  53 t-inv F
 -0.266667  0.600000  0.333333    0.00148148  53 t-inv F
  0.600000 -0.333333 -0.333333    0.00148148  53 t-inv F
 -0.333333 -0.266667  0.333333    0.00148148  53 t-inv F
 -0.266667  0.600000 -0.333333    0.00148148  53 t-inv F
  0.600000 -0.333333  0.333333    0.00148148  53 t-inv F
  0.333333 -0.600000 -0.333333    0.00148148  53 t-inv F
  0.266667  0.333333  0.333333    0.00148148  53 t-inv F
 -0.600000  0.266667 -0.333333    0.00148148  53 t-inv F
  0.333333 -0.600000  0.333333    0.00148148  53 t-inv F
  0.266667  0.333333 -0.333333    0.00148148  53 t-inv F
 -0.600000  0.266667  0.333333    0.00148148  53 t-inv F
  0.333333 -0.666667 -0.333333    0.00148148  54 t-inv F
 -0.333333  0.666667  0.333333    0.00148148  54 t-inv F
 -0.333333 -0.333333 -0.333333    0.00148148  54 t-inv F


--------------------------------------------------------------------------------------------------------




 Dimension of arrays:
   k-points           NKPTS =     54   k-points in BZ     NKDIM =     54   number of bands    NBANDS=     20
   number of dos      NEDOS =    301   number of ions     NIONS =      4
   non local maximal  LDIM  =      4   non local SUM 2l+1 LMDIM =      8
   total plane-waves  NPLWV =  16200
   max r-space proj   IRMAX =      1   max aug-charges    IRDMAX=   5740
   dimension x,y,z NGX =    18 NGY =   18 NGZ =   50
   dimension x,y,z NGXF=    36 NGYF=   36 NGZF=  100
   support grid    NGXF=    36 NGYF=   36 NGZF=  100
   ions per type =               4
   NGX,Y,Z   is equivalent  to a cutoff of  12.23, 12.23, 12.50 a.u.
   NGXF,Y,Z  is equivalent  to a cutoff of  24.45, 24.45, 25.00 a.u.

 SYSTEM =  unknown system                          
 POSCAR =   C                                      

 Startparameter for this run:
   NWRITE =      2    write-flag & timer
   PREC   = accura    normal or accurate (medium, high low for compatibility)
   ISTART =      1    job   : 0-new  1-cont  2-samecut
   ICHARG =     11    charge: 1-file 2-atom 10-const
   ISPIN  =      1    spin polarized calculation?
   LNONCOLLINEAR =      F non collinear calculations
   LSORBIT =      F    spin-orbit coupling
   INIWAV =      1    electr: 0-lowe 1-rand  2-diag
   LASPH  =      F    aspherical Exc in radial PAW
   METAGGA=      F    non-selfconsistent MetaGGA calc.

 Electronic Relaxation 1
   ENCUT  =  520.0 eV  38.22 Ry    6.18 a.u.   4.55  4.55 12.37*2*pi/ulx,y,z
   ENINI  =  520.0     initial cutoff
   ENAUG  =  644.9 eV  augmentation charge cutoff
   NELM   =     60;   NELMIN=  2; NELMDL=  0     # of ELM steps 
   EDIFF  = 0.1E-07   stopping-criterion for ELM
   LREAL  =      F    real-space projection
   NLSPLINE    = F    spline interpolate recip. space projectors
   LCOMPAT=      F    compatible to vasp.4.4
   GGA_COMPAT  = T    GGA compatible to vasp.4.4-vasp.4.6
   LMAXPAW     = -100 max onsite density
   LMAXMIX     =    2 max onsite mixed and CHGCAR
   VOSKOWN=      0    Vosko Wilk Nusair interpolation
   ROPT   =    0.00000
 Ionic relaxation
   EDIFFG = 0.1E-06   stopping-criterion for IOM
   NSW    =      0    number of steps for IOM
   NBLOCK =      1;   KBLOCK =      1    inner block; outer block 
   IBRION =     -1    ionic relax: 0-MD 1-quasi-New 2-CG
   NFREE  =      0    steps in history (QN), initial steepest desc. (CG)
   ISIF   =      2    stress and relaxation
   IWAVPR =     10    prediction:  0-non 1-charg 2-wave 3-comb
   ISYM   =      2    0-nonsym 1-usesym 2-fastsym
   LCORR  =      T    Harris-Foulkes like correction to forces

   POTIM  = 0.5000    time-step for ionic-motion
   TEIN   =    0.0    initial temperature
   TEBEG  =    0.0;   TEEND  =   0.0 temperature during run
   SMASS  =  -3.00    Nose mass-parameter (am)
   estimated Nose-frequenzy (Omega)   =  0.10E-29 period in steps =****** mass=  -0.137E-27a.u.
   SCALEE = 1.0000    scale energy and forces
   NPACO  =    256;   APACO  = 16.0  distance and # of slots for P.C.
   PSTRESS=    0.0 pullay stress

  Mass of Ions in am
   POMASS =  12.01
  Ionic Valenz
   ZVAL   =   4.00
  Atomic Wigner-Seitz radii
   RWIGS  =  -1.00
  virtual crystal weights 
   VCA    =   1.00
   NELECT =      16.0000    total number of electrons
   NUPDOWN=      -1.0000    fix difference up-down

 DOS related values:
   EMIN   =  10.00;   EMAX   =-10.00  energy-range for DOS
   EFERMI =   0.00
   ISMEAR =     0;   SIGMA  =   0.10  broadening in eV -4-tet -1-fermi 0-gaus

 Electronic relaxation 2 (details)
   IALGO  =     38    algorithm
   LDIAG  =      T    sub-space diagonalisation (order eigenvalues)
   LSUBROT=      F    optimize rotation matrix (better conditioning)
   TURBO    =      0    0=normal 1=particle mesh
   IRESTART =      0    0=no restart 2=restart with 2 vectors
   NREBOOT  =      0    no. of reboots
   NMIN     =      0    reboot dimension
   EREF     =   0.00    reference energy to select bands
   IMIX   =      4    mixing-type and parameters
     AMIX     =   0.40;   BMIX     =  1.00
     AMIX_MAG =   1.60;   BMIX_MAG =  1.00
     AMIN     =   0.10
     WC   =   100.;   INIMIX=   1;  MIXPRE=   1;  MAXMIX= -45

 Intra band minimization:
   WEIMIN = 0.0000     energy-eigenvalue tresh-hold
   EBREAK =  0.13E-09  absolut break condition
   DEPER  =   0.30     relativ break condition  

   TIME   =   0.40     timestep for ELM

  volume/ion in A,a.u.               =       8.63        58.21
  Fermi-wavevector in a.u.,A,eV,Ry     =   1.267146  2.394559 21.846325  1.605660
  Thomas-Fermi vector in A             =   2.400310
 
 Write flags
   LWAVE        =      F    write WAVECAR
   LDOWNSAMPLE  =      F    k-point downsampling of WAVECAR
   LCHARG       =      F    write CHGCAR
   LVTOT        =      F    write LOCPOT, total local potential
   LVHAR        =      F    write LOCPOT, Hartree potential only
   LELF         =      F    write electronic localiz. function (ELF)
   LORBIT       =      0    0 simple, 1 ext, 2 COOP (PROOUT), +10 PAW based schemes


 Dipole corrections
   LMONO  =      F    monopole corrections only (constant potential shift)
   LDIPOL =      F    correct potential (dipole corrections)
   IDIPOL =      0    1-x, 2-y, 3-z, 4-all directions 
   EPSILON=  1.0000000 bulk dielectric constant

 Exchange correlation treatment:
   GGA     =    --    GGA type
   LEXCH   =     2    internal setting for exchange type
   VOSKOWN=      0    Vosko Wilk Nusair interpolation
   LHFCALC =     F    Hartree Fock is set to
   LHFONE  =     F    Hartree Fock one center treatment
   AEXX    =    0.0000 exact exchange contribution

 Linear response parameters
   LEPSILON=     F    determine dielectric tensor
   LRPA    =     F    only Hartree local field effects (RPA)
   LNABLA  =     F    use nabla operator in PAW spheres
   LVEL    =     F    velocity operator in full k-point grid
   LINTERFAST=   F  fast interpolation
   KINTER  =     0    interpolate to denser k-point grid
   CSHIFT  =0.1000    complex shift for real part using Kramers Kronig
   OMEGAMAX=  -1.0    maximum frequency
   DEG_THRESHOLD= 0.2000000E-02 threshold for treating states as degnerate
   RTIME   =   -0.100 relaxation time in fs
  (WPLASMAI=    0.000 imaginary part of plasma frequency in eV, 0.658/RTIME)
   DFIELD  = 0.0000000 0.0000000 0.0000000 field for delta impulse in time
 
 Orbital magnetization related:
   ORBITALMAG=     F  switch on orbital magnetization
   LCHIMAG   =     F  perturbation theory with respect to B field
   DQ        =  0.001000  dq finite difference perturbation B field
   LLRAUG    =     F  two centre corrections for induced B field



--------------------------------------------------------------------------------------------------------


 Static calculation
 charge density and potential remain constant during run
 non-spin polarized calculation
 Variant of blocked Davidson
 Davidson routine will perform the subspace rotation
 perform sub-space diagonalisation
    after iterative eigenvector-optimisation
 no mixing
 using additional bands           12
 reciprocal scheme for non local part
 use partial core corrections
 calculate Harris-corrections to forces 
   (improved forces if not selfconsistent)
 use of overlap-Matrix (Vanderbilt PP)
 Gauss-broadening in eV      SIGMA  =   0.10


--------------------------------------------------------------------------------------------------------


  energy-cutoff  :      520.00
  volume of cell :       34.50
      direct lattice vectors                 reciprocal lattice vectors
     2.447541913  0.000000000  0.000000000     0.408573187  0.235889840  0.000000000
    -1.223770957  2.119633474  0.000000000     0.000000000  0.471779679  0.000000000
     0.000000000  0.000000000  6.650791927     0.000000000  0.000000000  0.150358034

  length of vectors
     2.447541913  2.447541913  6.650791927     0.471779679  0.471779679  0.150358034


 
 old parameters found on file WAVECAR:
  energy-cutoff  :      520.00
  volume of cell :       34.50
      direct lattice vectors                 reciprocal lattice vectors
     2.447541913  0.000000000  0.000000000     0.408573187  0.235889840  0.000000000
    -1.223770957  2.119633474  0.000000000     0.000000000  0.471779679  0.000000000
     0.000000000  0.000000000  6.650791927     0.000000000  0.000000000  0.150358034

  length of vectors

 
 k-points in units of 2pi/SCALE and weight: KPOINTS created by Atomic Simulation Env
   0.00000000  0.00000000  0.00000000       0.001
   0.02723821  0.01572599  0.00000000       0.009
   0.05447642  0.03145198  0.00000000       0.009
   0.08171464  0.04717797  0.00000000       0.009
   0.10895285  0.06290396  0.00000000       0.009
   0.13619106  0.07862995  0.00000000       0.009
   0.16342927  0.09435594  0.00000000       0.009
   0.19066749  0.11008193  0.00000000       0.009
   0.02723821  0.04717797  0.00000000       0.009
   0.05447642  0.06290396  0.00000000       0.018
   0.08171464  0.07862995  0.00000000       0.018
   0.10895285  0.09435594  0.00000000       0.018
   0.13619106  0.11008193  0.00000000       0.018
   0.16342927  0.12580791  0.00000000       0.018
   0.19066749  0.14153390  0.00000000       0.009
   0.05447642  0.09435594  0.00000000       0.009
   0.08171464  0.11008193  0.00000000       0.018
   0.10895285  0.12580791  0.00000000       0.018
   0.13619106  0.14153390  0.00000000       0.018
   0.16342927  0.15725989  0.00000000       0.018
   0.08171464  0.14153390  0.00000000       0.009
   0.10895285  0.15725989  0.00000000       0.018
   0.13619106  0.17298588  0.00000000       0.018
   0.16342927  0.18871187  0.00000000       0.009
   0.10895285  0.18871187  0.00000000       0.009
   0.13619106  0.20443786  0.00000000       0.018
   0.13619106  0.23588984  0.00000000       0.003
   0.00000000  0.00000000  0.05011934       0.003
   0.02723821  0.01572599  0.05011934       0.018
   0.05447642  0.03145198  0.05011934       0.018
   0.08171464  0.04717797  0.05011934       0.018
   0.10895285  0.06290396  0.05011934       0.018
   0.13619106  0.07862995  0.05011934       0.018
   0.16342927  0.09435594  0.05011934       0.018
   0.19066749  0.11008193  0.05011934       0.018
   0.02723821  0.04717797  0.05011934       0.018
   0.05447642  0.06290396  0.05011934       0.036
   0.08171464  0.07862995  0.05011934       0.036
   0.10895285  0.09435594  0.05011934       0.036
   0.13619106  0.11008193  0.05011934       0.036
   0.16342927  0.12580791  0.05011934       0.036
   0.19066749  0.14153390  0.05011934       0.018
   0.05447642  0.09435594  0.05011934       0.018
   0.08171464  0.11008193  0.05011934       0.036
   0.10895285  0.12580791  0.05011934       0.036
   0.13619106  0.14153390  0.05011934       0.036
   0.16342927  0.15725989  0.05011934       0.036
   0.08171464  0.14153390  0.05011934       0.018
   0.10895285  0.15725989  0.05011934       0.036
   0.13619106  0.17298588  0.05011934       0.036
   0.16342927  0.18871187  0.05011934       0.018
   0.10895285  0.18871187  0.05011934       0.018
   0.13619106  0.20443786  0.05011934       0.036
   0.13619106  0.23588984  0.05011934       0.006
 
 k-points in reciprocal lattice and weights: KPOINTS created by Atomic Simulation Env
   0.00000000  0.00000000  0.00000000       0.001
   0.06666667  0.00000000  0.00000000       0.009
   0.13333333  0.00000000  0.00000000       0.009
   0.20000000  0.00000000  0.00000000       0.009
   0.26666667  0.00000000  0.00000000       0.009
   0.33333333 -0.00000000  0.00000000       0.009
   0.40000000  0.00000000  0.00000000       0.009
   0.46666667  0.00000000  0.00000000       0.009
   0.06666667  0.06666667  0.00000000       0.009
   0.13333333  0.06666667  0.00000000       0.018
   0.20000000  0.06666667  0.00000000       0.018
   0.26666667  0.06666667  0.00000000       0.018
   0.33333333  0.06666667  0.00000000       0.018
   0.40000000  0.06666667  0.00000000       0.018
   0.46666667  0.06666667  0.00000000       0.009
   0.13333333  0.13333333  0.00000000       0.009
   0.20000000  0.13333333  0.00000000       0.018
   0.26666667  0.13333333  0.00000000       0.018
   0.33333333  0.13333333  0.00000000       0.018
   0.40000000  0.13333333  0.00000000       0.018
   0.20000000  0.20000000  0.00000000       0.009
   0.26666667  0.20000000  0.00000000       0.018
   0.33333333  0.20000000  0.00000000       0.018
   0.40000000  0.20000000  0.00000000       0.009
   0.26666667  0.26666667  0.00000000       0.009
   0.33333333  0.26666667  0.00000000       0.018
   0.33333333  0.33333333  0.00000000       0.003
   0.00000000  0.00000000  0.33333333       0.003
   0.06666667  0.00000000  0.33333333       0.018
   0.13333333  0.00000000  0.33333333       0.018
   0.20000000  0.00000000  0.33333333       0.018
   0.26666667  0.00000000  0.33333333       0.018
   0.33333333 -0.00000000  0.33333333       0.018
   0.40000000  0.00000000  0.33333333       0.018
   0.46666667  0.00000000  0.33333333       0.018
   0.06666667  0.06666667  0.33333333       0.018
   0.13333333  0.06666667  0.33333333       0.036
   0.20000000  0.06666667  0.33333333       0.036
   0.26666667  0.06666667  0.33333333       0.036
   0.33333333  0.06666667  0.33333333       0.036
   0.40000000  0.06666667  0.33333333       0.036
   0.46666667  0.06666667  0.33333333       0.018
   0.13333333  0.13333333  0.33333333       0.018
   0.20000000  0.13333333  0.33333333       0.036
   0.26666667  0.13333333  0.33333333       0.036
   0.33333333  0.13333333  0.33333333       0.036
   0.40000000  0.13333333  0.33333333       0.036
   0.20000000  0.20000000  0.33333333       0.018
   0.26666667  0.20000000  0.33333333       0.036
   0.33333333  0.20000000  0.33333333       0.036
   0.40000000  0.20000000  0.33333333       0.018
   0.26666667  0.26666667  0.33333333       0.018
   0.33333333  0.26666667  0.33333333       0.036
   0.33333333  0.33333333  0.33333333       0.006
 
 position of ions in fractional coordinates (direct lattice) 
   0.00000000  0.00000000  0.00000000
   0.33333333  0.66666667  0.00000000
   0.33333333  0.66666667  0.50000000
   0.66666667  0.33333333  0.50000000
 
 position of ions in cartesian coordinates  (Angst):
   0.00000000  0.00000000  0.00000000
   0.00000000  1.41308898  0.00000000
   0.00000000  1.41308898  3.32539596
   1.22377096  0.70654449  3.32539596
 


--------------------------------------------------------------------------------------------------------


 k-point  1 :   0.0000 0.0000 0.0000  plane waves:     931
 k-point  2 :   0.0667 0.0000 0.0000  plane waves:     940
 k-point  3 :   0.1333 0.0000 0.0000  plane waves:     938
 k-point  4 :   0.2000 0.0000 0.0000  plane waves:     942
 k-point  5 :   0.2667 0.0000 0.0000  plane waves:     944
 k-point  6 :   0.3333-0.0000 0.0000  plane waves:     930
 k-point  7 :   0.4000 0.0000 0.0000  plane waves:     930
 k-point  8 :   0.4667 0.0000 0.0000  plane waves:     916
 k-point  9 :   0.0667 0.0667 0.0000  plane waves:     945
 k-point 10 :   0.1333 0.0667 0.0000  plane waves:     937
 k-point 11 :   0.2000 0.0667 0.0000  plane waves:     938
 k-point 12 :   0.2667 0.0667 0.0000  plane waves:     940
 k-point 13 :   0.3333 0.0667 0.0000  plane waves:     932
 k-point 14 :   0.4000 0.0667 0.0000  plane waves:     928
 k-point 15 :   0.4667 0.0667 0.0000  plane waves:     922
 k-point 16 :   0.1333 0.1333 0.0000  plane waves:     937
 k-point 17 :   0.2000 0.1333 0.0000  plane waves:     933
 k-point 18 :   0.2667 0.1333 0.0000  plane waves:     928
 k-point 19 :   0.3333 0.1333 0.0000  plane waves:     925
 k-point 20 :   0.4000 0.1333 0.0000  plane waves:     925
 k-point 21 :   0.2000 0.2000 0.0000  plane waves:     927
 k-point 22 :   0.2667 0.2000 0.0000  plane waves:     919
 k-point 23 :   0.3333 0.2000 0.0000  plane waves:     926
 k-point 24 :   0.4000 0.2000 0.0000  plane waves:     920
 k-point 25 :   0.2667 0.2667 0.0000  plane waves:     915
 k-point 26 :   0.3333 0.2667 0.0000  plane waves:     920
 k-point 27 :   0.3333 0.3333 0.0000  plane waves:     924
 k-point 28 :   0.0000 0.0000 0.3333  plane waves:     931
 k-point 29 :   0.0667 0.0000 0.3333  plane waves:     934
 k-point 30 :   0.1333 0.0000 0.3333  plane waves:     943
 k-point 31 :   0.2000 0.0000 0.3333  plane waves:     949
 k-point 32 :   0.2667 0.0000 0.3333  plane waves:     943
 k-point 33 :   0.3333-0.0000 0.3333  plane waves:     933
 k-point 34 :   0.4000 0.0000 0.3333  plane waves:     921
 k-point 35 :   0.4667 0.0000 0.3333  plane waves:     925
 k-point 36 :   0.0667 0.0667 0.3333  plane waves:     942
 k-point 37 :   0.1333 0.0667 0.3333  plane waves:     945
 k-point 38 :   0.2000 0.0667 0.3333  plane waves:     944
 k-point 39 :   0.2667 0.0667 0.3333  plane waves:     935
 k-point 40 :   0.3333 0.0667 0.3333  plane waves:     927
 k-point 41 :   0.4000 0.0667 0.3333  plane waves:     918
 k-point 42 :   0.4667 0.0667 0.3333  plane waves:     921
 k-point 43 :   0.1333 0.1333 0.3333  plane waves:     940
 k-point 44 :   0.2000 0.1333 0.3333  plane waves:     936
 k-point 45 :   0.2667 0.1333 0.3333  plane waves:     925
 k-point 46 :   0.3333 0.1333 0.3333  plane waves:     918
 k-point 47 :   0.4000 0.1333 0.3333  plane waves:     921
 k-point 48 :   0.2000 0.2000 0.3333  plane waves:     929
 k-point 49 :   0.2667 0.2000 0.3333  plane waves:     921
 k-point 50 :   0.3333 0.2000 0.3333  plane waves:     919
 k-point 51 :   0.4000 0.2000 0.3333  plane waves:     920
 k-point 52 :   0.2667 0.2667 0.3333  plane waves:     916
 k-point 53 :   0.3333 0.2667 0.3333  plane waves:     921
 k-point 54 :   0.3333 0.3333 0.3333  plane waves:     921

 maximum and minimum number of plane-waves per node :       949      915

 maximum number of plane-waves:       949
 maximum index in each direction: 
   IXMAX=    4   IYMAX=    4   IZMAX=   12
   IXMIN=   -5   IYMIN=   -4   IZMIN=  -12


 serial   3D FFT for wavefunctions
 parallel 3D FFT for charge:
    minimum data exchange during FFTs selected (reduces bandwidth)


 total amount of memory used by VASP MPI-rank0    35565. kBytes
=======================================================================

   base      :      30000. kBytes
   nonl-proj :       3379. kBytes
   fftplans  :        307. kBytes
   grid      :       1003. kBytes
   one-center:         12. kBytes
   wavefun   :        864. kBytes
 
     INWAV:  cpu time    0.0419: real time    0.0420
 initial charge density was supplied:
 number of electron      15.9999994 magnetization 
 keeping initial charge density in first step


--------------------------------------------------------------------------------------------------------


 Maximum index for augmentation-charges          345 (set IRDMAX)


--------------------------------------------------------------------------------------------------------


 First call to EWALD:  gamma=   0.544
 Maximum number of real-space cells 4x 4x 2
 Maximum number of reciprocal cells 2x 2x 5

    FEWALD:  cpu time    0.0012: real time    0.0012


--------------------------------------- Iteration      1(   1)  ---------------------------------------


    POTLOK:  cpu time    0.0022: real time    0.0043
    SETDIJ:  cpu time    0.0009: real time    0.0009
     EDDAV:  cpu time    0.1840: real time    0.1849
       DOS:  cpu time    0.0004: real time    0.0004
    --------------------------------------------
      LOOP:  cpu time    0.1876: real time    0.1906

 eigenvalue-minimisations  :  2160
 total energy-change (2. order) :-0.4044599E+02  (-0.3199230E-09)
 number of electron      15.9999994 magnetization 
 augmentation part       15.9999994 magnetization 

 Free energy of the ion-electron system (eV)
  ---------------------------------------------------
  alpha Z        PSCENC =        35.50115494
  Ewald energy   TEWEN  =      -465.02100188
  -Hartree energ DENC   =      -181.07184646
  -exchange      EXHF   =         0.00000000
  -V(xc)+E(xc)   XCENC  =        55.71408648
  PAW double counting   =      1712.54632965    -1715.18044057
  entropy T*S    EENTRO =        -0.00098272
  eigenvalues    EBANDS =       -69.64925505
  atomic energy  EATOM  =       586.71596219
  Solvation  Ediel_sol  =         0.00000000
  ---------------------------------------------------
  free energy    TOTEN  =       -40.44599342 eV

  energy without entropy =      -40.44501070  energy(sigma->0) =      -40.44550206


--------------------------------------------------------------------------------------------------------




--------------------------------------- Iteration      1(   2)  ---------------------------------------


     EDDAV:  cpu time    0.2017: real time    0.2031
       DOS:  cpu time    0.0003: real time    0.0003
    --------------------------------------------
      LOOP:  cpu time    0.2020: real time    0.2034

 eigenvalue-minimisations  :  2300
 total energy-change (2. order) : 0.1430180E-09  (-0.8381385E-11)
 number of electron      15.9999994 magnetization 
 augmentation part       15.9999994 magnetization 

 Free energy of the ion-electron system (eV)
  ---------------------------------------------------
  alpha Z        PSCENC =        35.50115494
  Ewald energy   TEWEN  =      -465.02100188
  -Hartree energ DENC   =      -181.07184646
  -exchange      EXHF   =         0.00000000
  -V(xc)+E(xc)   XCENC  =        55.71408648
  PAW double counting   =      1712.54632965    -1715.18044057
  entropy T*S    EENTRO =        -0.00098272
  eigenvalues    EBANDS =       -69.64925505
  atomic energy  EATOM  =       586.71596219
  Solvation  Ediel_sol  =         0.00000000
  ---------------------------------------------------
  free energy    TOTEN  =       -40.44599342 eV

  energy without entropy =      -40.44501070  energy(sigma->0) =      -40.44550206


--------------------------------------------------------------------------------------------------------




 average (electrostatic) potential at core
  the test charge radii are     0.6991
  (the norm of the test charge is              1.0000)
       1 -54.7241       2 -54.7581       3 -54.7581       4 -54.7241
 
 
 
 E-fermi :   4.7483     XC(G=0): -10.8547     alpha+bet :-11.8174


 k-point     1 :       0.0000    0.0000    0.0000
  band No.  band energies     occupation 
      1     -14.8504      2.00000
      2     -14.5103      2.00000
      3      -4.0047      2.00000
      4      -1.8676      2.00000
      5       1.7641      2.00000
      6       1.7641      2.00000
      7       1.7837      2.00000
      8       1.7837      2.00000
      9       8.6439      0.00000
     10      13.1792      0.00000
     11      13.1792      0.00000
     12      13.2363      0.00000
     13      13.2363      0.00000
     14      15.0429      0.00000
     15      16.2794      0.00000
     16      16.6043      0.00000
     17      17.9797      0.00000
     18      18.2227      0.00000
     19      23.3395      0.00000
     20      27.4639      0.00000

 k-point     2 :       0.0667    0.0000    0.0000
  band No.  band energies     occupation 
      1     -14.7435      2.00000
      2     -14.4056      2.00000
      3      -3.8732      2.00000
      4      -1.7449      2.00000
      5       1.3416      2.00000
      6       1.3725      2.00000
      7       1.5334      2.00000
      8       1.5607      2.00000
      9       8.7728      0.00000
     10      13.2225      0.00000
     11      13.3011      0.00000
     12      13.6375      0.00000
     13      13.6943      0.00000
     14      15.1394      0.00000
     15      15.8969      0.00000
     16      16.1754      0.00000
     17      18.1383      0.00000
     18      18.4110      0.00000
     19      23.3946      0.00000
     20      27.8132      0.00000

 k-point     3 :       0.1333    0.0000    0.0000
  band No.  band energies     occupation 
      1     -14.4235      2.00000
      2     -14.0923      2.00000
      3      -3.4801      2.00000
      4      -1.3794      2.00000
      5       0.2166      2.00000
      6       0.2720      2.00000
      7       0.9533      2.00000
      8       0.9922      2.00000
      9       9.1609      0.00000
     10      13.2330      0.00000
     11      13.3804      0.00000
     12      14.8048      0.00000
     13      14.8985      0.00000
     14      14.9537      0.00000
     15      15.1340      0.00000
     16      15.4783      0.00000
     17      18.6538      0.00000
     18      18.9772      0.00000
     19      23.7368      0.00000
     20      28.6715      0.00000

 k-point     4 :       0.2000    0.0000    0.0000
  band No.  band energies     occupation 
      1     -13.8927      2.00000
      2     -13.5725      2.00000
      3      -2.8311      2.00000
      4      -1.3334      2.00000
      5      -1.2482      2.00000
      6      -0.7801      2.00000
      7       0.2319      2.00000
      8       0.2793      2.00000
      9       9.8085      0.00000
     10      13.0893      0.00000
     11      13.2005      0.00000
     12      13.3332      0.00000
[...]
      9      11.5237      0.00000
     10      12.3146      0.00000
     11      12.5394      0.00000
     12      13.4095      0.00000
     13      13.6561      0.00000
     14      14.4828      0.00000
     15      17.2585      0.00000
     16      17.3968      0.00000
     17      20.5324      0.00000
     18      20.9700      0.00000
     19      24.0465      0.00000
     20      25.1341      0.00000

 k-point    39 :       0.2667    0.0667    0.3333
  band No.  band energies     occupation 
      1     -12.5630      2.00000
      2     -12.4161      2.00000
      3      -3.9102      2.00000
      4      -3.8458      2.00000
      5      -1.0939      2.00000
      6      -1.0627      2.00000
      7      -0.8955      2.00000
      8       0.0442      2.00000
      9      10.3675      0.00000
     10      10.7918      0.00000
     11      12.5257      0.00000
     12      13.2211      0.00000
     13      13.5119      0.00000
     14      15.2534      0.00000
     15      18.9556      0.00000
     16      19.2743      0.00000
     17      21.2843      0.00000
     18      21.6948      0.00000
     19      22.9755      0.00000
     20      23.9586      0.00000

 k-point    40 :       0.3333    0.0667    0.3333
  band No.  band energies     occupation 
      1     -11.5366      2.00000
      2     -11.4004      2.00000
      3      -5.6410      2.00000
      4      -5.5606      2.00000
      5      -1.6025      2.00000
      6      -1.5690      2.00000
      7       0.2760      2.00000
      8       1.1333      2.00000
      9       8.4898      0.00000
     10       9.0053      0.00000
     11      12.9900      0.00000
     12      13.1460      0.00000
     13      13.9002      0.00000
     14      16.1531      0.00000
     15      19.3726      0.00000
     16      20.3284      0.00000
     17      21.8253      0.00000
     18      22.6115      0.00000
     19      24.0788      0.00000
     20      25.6021      0.00000

 k-point    41 :       0.4000    0.0667    0.3333
  band No.  band energies     occupation 
      1     -10.3402      2.00000
      2     -10.2176      2.00000
      3      -7.2817      2.00000
      4      -7.1886      2.00000
      5      -1.9180      2.00000
      6      -1.8834      2.00000
      7       1.5058      2.00000
      8       2.1842      2.00000
      9       6.8873      0.00000
     10       7.4034      0.00000
     11      12.8526      0.00000
     12      13.0733      0.00000
     13      15.1781      0.00000
     14      16.9979      0.00000
     15      18.3783      0.00000
     16      19.5354      0.00000
     17      22.9608      0.00000
     18      24.1988      0.00000
     19      25.1014      0.00000
     20      26.1942      0.00000

 k-point    42 :       0.4667    0.0667    0.3333
  band No.  band energies     occupation 
      1      -9.2769      2.00000
      2      -9.2139      2.00000
      3      -8.4444      2.00000
      4      -8.3970      2.00000
      5      -2.0248      2.00000
      6      -1.9899      2.00000
      7       2.2475      2.00000
      8       2.6300      2.00000
      9       6.2103      0.00000
     10       6.5722      0.00000
     11      12.8012      0.00000
     12      13.0332      0.00000
     13      16.4488      0.00000
     14      16.6977      0.00000
     15      18.0106      0.00000
     16      18.9803      0.00000
     17      23.2577      0.00000
     18      24.9609      0.00000
     19      25.1687      0.00000
     20      26.5904      0.00000

 k-point    43 :       0.1333    0.1333    0.3333
  band No.  band energies     occupation 
      1     -13.5015      2.00000
      2     -13.3450      2.00000
      3      -2.0084      2.00000
      4      -1.6811      2.00000
      5      -1.6556      2.00000
      6      -1.0142      2.00000
      7      -0.6331      2.00000
      8      -0.6154      2.00000
      9      11.4432      0.00000
     10      12.6155      0.00000
     11      12.8397      0.00000
     12      13.9555      0.00000
     13      14.3442      0.00000
     14      14.5169      0.00000
     15      16.1057      0.00000
     16      16.1867      0.00000
     17      20.7657      0.00000
     18      20.9626      0.00000
     19      24.1540      0.00000
     20      24.8357      0.00000

 k-point    44 :       0.2000    0.1333    0.3333
  band No.  band energies     occupation 
      1     -12.7709      2.00000
      2     -12.6219      2.00000
      3      -3.0774      2.00000
      4      -3.0331      2.00000
      5      -1.5534      2.00000
      6      -1.5231      2.00000
      7      -1.1359      2.00000
      8      -0.1814      2.00000
      9      11.0026      0.00000
     10      11.2936      0.00000
     11      12.2947      0.00000
     12      14.3313      0.00000
     13      14.6531      0.00000
     14      15.0477      0.00000
     15      17.0997      0.00000
     16      17.2754      0.00000
     17      21.2399      0.00000
     18      21.9546      0.00000
     19      22.7298      0.00000
     20      23.5693      0.00000

 k-point    45 :       0.2667    0.1333    0.3333
  band No.  band energies     occupation 
      1     -11.8437      2.00000
      2     -11.7043      2.00000
      3      -4.6847      2.00000
      4      -4.6183      2.00000
      5      -2.2314      2.00000
      6      -2.1910      2.00000
      7      -0.0541      2.00000
      8       0.8387      2.00000
      9       9.2465      0.00000
     10       9.6386      0.00000
     11      13.3203      0.00000
     12      14.2824      0.00000
     13      14.6050      0.00000
     14      15.6873      0.00000
     15      18.3406      0.00000
     16      18.8986      0.00000
     17      20.2783      0.00000
     18      21.7281      0.00000
     19      24.4240      0.00000
     20      26.2419      0.00000

 k-point    46 :       0.3333    0.1333    0.3333
  band No.  band energies     occupation 
      1     -10.7346      2.00000
      2     -10.6069      2.00000
      3      -6.3175      2.00000
      4      -6.2340      2.00000
      5      -2.6772      2.00000
      6      -2.6324      2.00000
      7       1.1713      2.00000
      8       1.9511      2.00000
      9       7.5443      0.00000
     10       8.0097      0.00000
     11      14.1088      0.00000
     12      14.2485      0.00000
     13      14.7451      0.00000
     14      16.3142      0.00000
     15      18.4287      0.00000
     16      19.2668      0.00000
     17      21.2317      0.00000
     18      22.7768      0.00000
     19      24.2548      0.00000
     20      26.7721      0.00000

 k-point    47 :       0.4000    0.1333    0.3333
  band No.  band energies     occupation 
      1      -9.5004      2.00000
      2      -9.3933      2.00000
      3      -7.8225      2.00000
      4      -7.7335      2.00000
      5      -2.8999      2.00000
      6      -2.8533      2.00000
      7       2.3005      2.00000
      8       2.8105      2.00000
      9       6.3326      0.00000
     10       6.6979      0.00000
     11      14.0156      0.00000
     12      14.2777      0.00000
     13      15.7998      0.00000
     14      16.5740      0.00000
     15      17.8308      0.00000
     16      18.8765      0.00000
     17      21.7022      0.00000
     18      22.7390      0.00000
     19      24.5860      0.00000
     20      25.1936      0.00000

 k-point    48 :       0.2000    0.2000    0.3333
  band No.  band energies     occupation 
      1     -11.9466      2.00000
      2     -11.8062      2.00000
      3      -4.0608      2.00000
      4      -4.0261      2.00000
      5      -2.7494      2.00000
      6      -2.7233      2.00000
      7      -0.1658      2.00000
      8       0.7381      2.00000
      9       9.5867      0.00000
     10       9.8737      0.00000
     11      13.1903      0.00000
     12      15.1793      0.00000
     13      15.8386      0.00000
     14      15.8921      0.00000
     15      17.0676      0.00000
     16      17.4247      0.00000
     17      19.8605      0.00000
     18      21.6501      0.00000
     19      24.2897      0.00000
     20      26.0331      0.00000

 k-point    49 :       0.2667    0.2000    0.3333
  band No.  band energies     occupation 
      1     -10.9355      2.00000
      2     -10.8056      2.00000
      3      -5.3630      2.00000
      4      -5.3026      2.00000
      5      -3.5779      2.00000
      6      -3.5334      2.00000
      7       0.9903      2.00000
      8       1.8145      2.00000
      9       8.0576      0.00000
     10       8.3994      0.00000
     11      14.1954      0.00000
     12      15.4573      0.00000
     13      16.1610      0.00000
     14      16.2155      0.00000
     15      17.6910      0.00000
     16      18.4018      0.00000
     17      19.1407      0.00000
     18      21.1593      0.00000
     19      24.6500      0.00000
     20      26.4017      0.00000

 k-point    50 :       0.3333    0.2000    0.3333
  band No.  band energies     occupation 
      1      -9.7647      2.00000
      2      -9.6487      2.00000
      3      -6.8272      2.00000
      4      -6.7451      2.00000
      5      -3.9993      2.00000
      6      -3.9436      2.00000
      7       2.2275      2.00000
      8       2.8958      2.00000
      9       6.6306      0.00000
     10       6.9958      0.00000
     11      15.0477      0.00000
     12      15.4020      0.00000
     13      16.1026      0.00000
     14      16.2380      0.00000
     15      17.6678      0.00000
     16      18.7975      0.00000
     17      20.3052      0.00000
     18      21.5097      0.00000
     19      23.9107      0.00000
     20      24.9675      0.00000

 k-point    51 :       0.4000    0.2000    0.3333
  band No.  band energies     occupation 
      1      -8.7425      2.00000
      2      -8.6831      2.00000
      3      -7.9127      2.00000
      4      -7.8726      2.00000
      5      -4.1298      2.00000
      6      -4.0713      2.00000
      7       3.0232      2.00000
      8       3.3977      2.00000
      9       6.0191      0.00000
     10       6.1289      0.00000
     11      15.3371      0.00000
     12      15.3428      0.00000
     13      16.1229      0.00000
     14      16.2357      0.00000
     15      17.7290      0.00000
     16      18.6612      0.00000
     17      20.9912      0.00000
     18      22.0164      0.00000
     19      24.3548      0.00000
     20      24.6246      0.00000

 k-point    52 :       0.2667    0.2667    0.3333
  band No.  band energies     occupation 
      1      -9.8588      2.00000
      2      -9.7409      2.00000
      3      -6.1030      2.00000
      4      -6.0587      2.00000
      5      -4.7384      2.00000
      6      -4.7056      2.00000
      7       2.1882      2.00000
      8       2.9109      2.00000
      9       6.8031      0.00000
     10       7.1355      0.00000
     11      14.8260      0.00000
     12      15.3687      0.00000
     13      17.1305      0.00000
     14      17.5489      0.00000
     15      17.7276      0.00000
     16      18.3000      0.00000
     17      18.7662      0.00000
     18      20.6947      0.00000
     19      23.9349      0.00000
     20      24.7744      0.00000

 k-point    53 :       0.3333    0.2667    0.3333
  band No.  band energies     occupation 
      1      -8.6794      2.00000
      2      -8.5821      2.00000
      3      -7.1898      2.00000
      4      -7.1233      2.00000
      5      -5.2897      2.00000
      6      -5.2358      2.00000
      7       3.3828      2.00000
      8       3.9017      2.00000
      9       5.6834      0.00000
     10       5.9704      0.00000
     11      14.9265      0.00000
     12      15.0785      0.00000
     13      17.2688      0.00000
     14      17.9253      0.00000
     15      18.0820      0.00000
     16      18.6602      0.00000
     17      20.0768      0.00000
     18      21.0477      0.00000
     19      23.6473      0.00000
     20      24.0442      0.00000

 k-point    54 :       0.3333    0.3333    0.3333
  band No.  band energies     occupation 
      1      -7.7074      2.00000
      2      -7.6481      2.00000
      3      -7.6481      2.00000
      4      -7.6020      2.00000
      5      -5.9527      2.00000
      6      -5.9527      2.00000
      7       4.3966      2.00000
      8       4.7584      0.88681
      9       4.7584      0.88681
     10       5.1192      0.00000
     11      14.7775      0.00000
     12      14.7775      0.00000
     13      17.6967      0.00000
     14      18.5489      0.00000
     15      18.5490      0.00000
     16      19.4035      0.00000
     17      20.2534      0.00000
     18      20.5093      0.00000
     19      23.2905      0.00000
     20      23.7682      0.00000


--------------------------------------------------------------------------------------------------------


 soft charge-density along one line, spin component           1
         0         1         2         3         4         5         6         7         8         9
 total charge-density along one line
 
 pseudopotential strength for first ion, spin component:           1
 10.265  13.760  -0.000   0.000   0.000   0.000  -0.000  -0.000
 13.760  18.445  -0.000   0.000   0.000   0.000  -0.000  -0.000
 -0.000  -0.000  -3.831  -0.000  -0.000   7.368   0.000   0.000
  0.000   0.000  -0.000  -3.820  -0.000   0.000   7.355   0.000
  0.000   0.000  -0.000  -0.000  -3.831   0.000   0.000   7.368
  0.000   0.000   7.368   0.000   0.000 -17.086  -0.000  -0.000
 -0.000  -0.000   0.000   7.355   0.000  -0.000 -17.075  -0.000
 -0.000  -0.000   0.000   0.000   7.368  -0.000  -0.000 -17.086
 total augmentation occupancy for first ion, spin component:           1
  2.000   0.000   0.000   0.000   0.000   0.000   0.000   0.000
  0.000   0.000   0.000   0.000   0.000   0.000   0.000   0.000
  0.000   0.000   0.667   0.000   0.000   0.000   0.000   0.000
  0.000   0.000   0.000   0.667   0.000   0.000   0.000   0.000
  0.000   0.000   0.000   0.000   0.667   0.000   0.000   0.000
  0.000   0.000   0.000   0.000   0.000   0.000   0.000   0.000
  0.000   0.000   0.000   0.000   0.000   0.000   0.000   0.000
  0.000   0.000   0.000   0.000   0.000   0.000   0.000   0.000


------------------------ aborting loop because EDIFF is reached ----------------------------------------


    CHARGE:  cpu time    0.0103: real time    0.0103
    FORLOC:  cpu time    0.0002: real time    0.0002
    FORNL :  cpu time    0.0099: real time    0.0099
    STRESS:  cpu time    0.1030: real time    0.1034
    FORCOR:  cpu time    0.0010: real time    0.0010
    FORHAR:  cpu time    0.0007: real time    0.0007
    OFIELD:  cpu time    0.0001: real time    0.0001

  FORCE on cell =-STRESS in cart. coord.  units (eV):
  Direction    XX          YY          ZZ          XY          YZ          ZX
  --------------------------------------------------------------------------------------
  Alpha Z    35.50115    35.50115    35.50115
  Ewald      76.93940    76.93940  -618.90013    -0.00000     0.00000    -0.00000
  Hartree   159.09276   159.09276  -137.11367    -0.00000    -0.00000    -0.00000
  E(xc)     -59.37196   -59.37196   -59.20680    -0.00000    -0.00000    -0.00000
  Local    -443.64714  -443.64717   514.22169    -0.00002     0.00000     0.00000
  n-local    -8.26770    -9.04605    -7.38994    -1.17914     0.02642     0.02894
  augment    -0.56937    -0.56936    -0.55739     0.00001    -0.00000    -0.00000
  Kinetic   236.95541   244.41918   273.40905     7.11468    -0.35881    -0.42482
  Fock        0.00000     0.00000     0.00000     0.00000     0.00000     0.00000
  -------------------------------------------------------------------------------------
  Total      -0.02475    -0.02475    -0.03604     0.00000     0.00000    -0.00000
  in kB      -1.14909    -1.14909    -1.67360     0.00000     0.00000    -0.00000
  external pressure =       -1.32 kB  Pullay stress =        0.00 kB


 VOLUME and BASIS-vectors are now :
 -----------------------------------------------------------------------------
  energy-cutoff  :      520.00
  volume of cell :       34.50
      direct lattice vectors                 reciprocal lattice vectors
     2.447541913  0.000000000  0.000000000     0.408573187  0.235889840  0.000000000
    -1.223770957  2.119633474  0.000000000     0.000000000  0.471779679  0.000000000
     0.000000000  0.000000000  6.650791927     0.000000000  0.000000000  0.150358034

  length of vectors
     2.447541913  2.447541913  6.650791927     0.471779679  0.471779679  0.150358034


 FORCES acting on ions
    electron-ion (+dipol)            ewald-force                    non-local-force                 convergence-correction
 -----------------------------------------------------------------------------------------------
   -.830E-06 0.479E-06 0.855E-15   0.627E-11 -.364E-11 -.184E-13   0.694E-16 0.555E-16 0.000E+00   -.328E-04 0.190E-04 -.609E-12
   0.827E-06 -.477E-06 -.848E-12   -.627E-11 0.364E-11 -.184E-13   -.139E-16 -.111E-15 0.000E+00   0.620E-04 -.358E-04 -.616E-12
   -.827E-06 0.477E-06 0.131E-13   -.127E-10 0.736E-11 0.184E-13   0.139E-16 0.111E-15 0.000E+00   0.947E-04 -.547E-04 0.244E-12
   0.830E-06 -.479E-06 -.297E-11   0.127E-10 -.737E-11 0.184E-13   -.416E-16 -.555E-16 0.000E+00   -.946E-04 0.546E-04 0.657E-12
 -----------------------------------------------------------------------------------------------
   -.161E-11 -.618E-11 -.380E-11   0.802E-14 -.556E-14 0.000E+00   0.278E-16 0.000E+00 0.000E+00   0.293E-04 -.169E-04 -.325E-12
 
 
 POSITION                                       TOTAL-FORCE (eV/Angst)
 -----------------------------------------------------------------------------------
      0.00000      0.00000      0.00000        -0.000000      0.000000      0.000000
      0.00000      1.41309      0.00000        -0.000000      0.000000      0.000000
      0.00000      1.41309      3.32540         0.000000      0.000000      0.000000
      1.22377      0.70654      3.32540         0.000000     -0.000000      0.000000
 -----------------------------------------------------------------------------------
    total drift:                                0.000029     -0.000017     -0.000000


--------------------------------------------------------------------------------------------------------



  FREE ENERGIE OF THE ION-ELECTRON SYSTEM (eV)
  ---------------------------------------------------
  free  energy   TOTEN  =       -40.44599342 eV

  energy  without entropy=      -40.44501070  energy(sigma->0) =      -40.44550206
 


--------------------------------------------------------------------------------------------------------


    POTLOK:  cpu time    0.0021: real time    0.0022


--------------------------------------------------------------------------------------------------------


     LOOP+:  cpu time   14.2943: real time   15.0931
    4ORBIT:  cpu time    0.0000: real time    0.0000

 total amount of memory used by VASP MPI-rank0    35565. kBytes
=======================================================================

   base      :      30000. kBytes
   nonl-proj :       3379. kBytes
   fftplans  :        307. kBytes
   grid      :       1003. kBytes
   one-center:         12. kBytes
   wavefun   :        864. kBytes
 
  
  
 General timing and accounting informations for this job:
 ========================================================
  
                  Total CPU time used (sec):       14.912
                            User time (sec):       12.160
                          System time (sec):        2.752
                         Elapsed time (sec):       17.451
  
                   Maximum memory used (kb):      216420.
                   Average memory used (kb):           0.
  
                          Minor page faults:        22773
                          Major page faults:            0
                 Voluntary context switches:         1363
