<?xml version="1.0" encoding="ISO-8859-1"?>
<modeling>
 <generator>
  <i name="program" type="string">vasp </i>
  <i name="version" type="string">5.4.4.18Apr17-6-g9f103f2a35  </i>
  <i name="subversion" type="string">(build Sep 07 2021 20:00:30) complex            parallel </i>
  <i name="platform" type="string">LinuxIFC </i>
  <i name="date" type="string">2021 11 08 </i>
  <i name="time" type="string">10:37:43 </i>
 </generator>
 <incar>
  <i type="int" name="ISTART">     1</i>
  <i type="string" name="PREC">accurate</i>
  <i type="int" name="ICHARG">    11</i>
  <i name="EDIFF">      0.00000001</i>
  <i name="ENCUT">    520.00000000</i>
  <i type="int" name="NBANDS">    20</i>
  <i type="int" name="ISMEAR">     0</i>
  <i name="SIGMA">      0.10000000</i>
  <i type="logical" name="LWAVE"> F  </i>
  <i type="logical" name="LCHARG"> F  </i>
  <v type="int" name="KPOINT_BSE">    -1     0     0     0</v>
  <i type="logical" name="LWANNIER90"> T  </i>
 </incar>
 <structure name="primitive_cell" >
  <crystal>
   <varray name="basis" >
    <v>       2.44754191       0.00000000       0.00000000 </v>
    <v>      -1.22377096       2.11963347       0.00000000 </v>
    <v>       0.00000000       0.00000000       6.65079193 </v>
   </varray>
   <i name="volume">     34.50358869 </i>
   <varray name="rec_basis" >
    <v>       0.40857319       0.23588984       0.00000000 </v>
    <v>       0.00000000       0.47177968       0.00000000 </v>
    <v>       0.00000000       0.00000000       0.15035803 </v>
   </varray>
  </crystal>
  <varray name="positions" >
   <v>       0.00000000       0.00000000       0.00000000 </v>
   <v>       0.33333333      -0.33333333       0.00000000 </v>
   <v>       0.33333333      -0.33333333      -0.50000000 </v>
   <v>      -0.33333333       0.33333333      -0.50000000 </v>
  </varray>
 </structure>
 <varray name="primitive_index" >
  <v type="int" >        1 </v>
  <v type="int" >        2 </v>
  <v type="int" >        3 </v>
  <v type="int" >        4 </v>
 </varray>
 <kpoints>
  <generation param="Monkhorst-Pack">
   <v type="int" name="divisions">      15       15        3 </v>
   <v name="usershift">      0.00000000       0.00000000       0.00000000 </v>
   <v name="genvec1">      0.06666667       0.00000000       0.00000000 </v>
   <v name="genvec2">      0.00000000       0.06666667       0.00000000 </v>
   <v name="genvec3">      0.00000000       0.00000000       0.33333333 </v>
   <v name="shift">      0.00000000       0.00000000       0.00000000 </v>
  </generation>
  <varray name="kpointlist" >
   <v>       0.00000000       0.00000000       0.00000000 </v>
   <v>       0.06666667       0.00000000       0.00000000 </v>
   <v>       0.13333333       0.00000000       0.00000000 </v>
   <v>       0.20000000       0.00000000       0.00000000 </v>
   <v>       0.26666667       0.00000000       0.00000000 </v>
   <v>       0.33333333      -0.00000000       0.00000000 </v>
   <v>       0.40000000       0.00000000       0.00000000 </v>
   <v>       0.46666667       0.00000000       0.00000000 </v>
   <v>       0.06666667       0.06666667       0.00000000 </v>
   <v>       0.13333333       0.06666667       0.00000000 </v>
   <v>       0.20000000       0.06666667       0.00000000 </v>
   <v>       0.26666667       0.06666667       0.00000000 </v>
   <v>       0.33333333       0.06666667       0.00000000 </v>
   <v>       0.40000000       0.06666667       0.00000000 </v>
   <v>       0.46666667       0.06666667       0.00000000 </v>
   <v>       0.13333333       0.13333333       0.00000000 </v>
   <v>       0.20000000       0.13333333       0.00000000 </v>
   <v>       0.26666667       0.13333333       0.00000000 </v>
   <v>       0.33333333       0.13333333       0.00000000 </v>
   <v>       0.40000000       0.13333333       0.00000000 </v>
   <v>       0.20000000       0.20000000       0.00000000 </v>
   <v>       0.26666667       0.20000000       0.00000000 </v>
   <v>       0.33333333       0.20000000       0.00000000 </v>
   <v>       0.40000000       0.20000000       0.00000000 </v>
   <v>       0.26666667       0.26666667       0.00000000 </v>
   <v>       0.33333333       0.26666667       0.00000000 </v>
   <v>       0.33333333       0.33333333       0.00000000 </v>
   <v>       0.00000000       0.00000000       0.33333333 </v>
   <v>       0.06666667       0.00000000       0.33333333 </v>
   <v>       0.13333333       0.00000000       0.33333333 </v>
   <v>       0.20000000       0.00000000       0.33333333 </v>
   <v>       0.26666667       0.00000000       0.33333333 </v>
   <v>       0.33333333      -0.00000000       0.33333333 </v>
   <v>       0.40000000       0.00000000       0.33333333 </v>
   <v>       0.46666667       0.00000000       0.33333333 </v>
   <v>       0.06666667       0.06666667       0.33333333 </v>
   <v>       0.13333333       0.06666667       0.33333333 </v>
   <v>       0.20000000       0.06666667       0.33333333 </v>
   <v>       0.26666667       0.06666667       0.33333333 </v>
   <v>       0.33333333       0.06666667       0.33333333 </v>
   <v>       0.40000000       0.06666667       0.33333333 </v>
   <v>       0.46666667       0.06666667       0.33333333 </v>
   <v>       0.13333333       0.13333333       0.33333333 </v>
   <v>       0.20000000       0.13333333       0.33333333 </v>
   <v>       0.26666667       0.13333333       0.33333333 </v>
   <v>       0.33333333       0.13333333       0.33333333 </v>
   <v>       0.40000000       0.13333333       0.33333333 </v>
   <v>       0.20000000       0.20000000       0.33333333 </v>
   <v>       0.26666667       0.20000000       0.33333333 </v>
   <v>       0.33333333       0.20000000       0.33333333 </v>
   <v>       0.40000000       0.20000000       0.33333333 </v>
   <v>       0.26666667       0.26666667       0.33333333 </v>
   <v>       0.33333333       0.26666667       0.33333333 </v>
   <v>       0.33333333       0.33333333       0.33333333 </v>
  </varray>
  <varray name="weights" >
   <v>       0.00148148 </v>
   <v>       0.00888889 </v>
   <v>       0.00888889 </v>
   <v>       0.00888889 </v>
   <v>       0.00888889 </v>
   <v>       0.00888889 </v>
   <v>       0.00888889 </v>
   <v>       0.00888889 </v>
   <v>       0.00888889 </v>
   <v>       0.01777778 </v>
   <v>       0.01777778 </v>
   <v>       0.01777778 </v>
   <v>       0.01777778 </v>
   <v>       0.01777778 </v>
   <v>       0.00888889 </v>
   <v>       0.00888889 </v>
   <v>       0.01777778 </v>
   <v>       0.01777778 </v>
   <v>       0.01777778 </v>
   <v>       0.01777778 </v>
   <v>       0.00888889 </v>
   <v>       0.01777778 </v>
   <v>       0.01777778 </v>
   <v>       0.00888889 </v>
   <v>       0.00888889 </v>
   <v>       0.01777778 </v>
   <v>       0.00296296 </v>
   <v>       0.00296296 </v>
   <v>       0.01777778 </v>
   <v>       0.01777778 </v>
   <v>       0.01777778 </v>
   <v>       0.01777778 </v>
   <v>       0.01777778 </v>
   <v>       0.01777778 </v>
   <v>       0.01777778 </v>
   <v>       0.01777778 </v>
   <v>       0.03555556 </v>
   <v>       0.03555556 </v>
   <v>       0.03555556 </v>
   <v>       0.03555556 </v>
   <v>       0.03555556 </v>
   <v>       0.01777778 </v>
   <v>       0.01777778 </v>
   <v>       0.03555556 </v>
   <v>       0.03555556 </v>
   <v>       0.03555556 </v>
   <v>       0.03555556 </v>
   <v>       0.01777778 </v>
   <v>       0.03555556 </v>
   <v>       0.03555556 </v>
   <v>       0.01777778 </v>
   <v>       0.01777778 </v>
   <v>       0.03555556 </v>
   <v>       0.00592593 </v>
  </varray>
 </kpoints>
 <parameters>
  <separator name="general" >
   <i type="string" name="SYSTEM">unknown system</i>
   <i type="logical" name="LCOMPAT"> F  </i>
  </separator>
  <separator name="electronic" >
   <i type="string" name="PREC">accura</i>
   <i name="ENMAX">    520.00000000</i>
   <i name="ENAUG">    644.87300000</i>
   <i name="EDIFF">      0.00000001</i>
   <i type="int" name="IALGO">    38</i>
   <i type="int" name="IWAVPR">    10</i>
   <i type="int" name="NBANDS">    20</i>
   <i name="NELECT">     16.00000000</i>
   <i type="int" name="TURBO">     0</i>
   <i type="int" name="IRESTART">     0</i>
   <i type="int" name="NREBOOT">     0</i>
   <i type="int" name="NMIN">     0</i>
   <i name="EREF">      0.00000000</i>
   <separator name="electronic smearing" >
    <i type="int" name="ISMEAR">     0</i>
    <i name="SIGMA">      0.10000000</i>
    <i name="KSPACING">      0.50000000</i>
    <i type="logical" name="KGAMMA"> T  </i>
   </separator>
   <separator name="electronic projectors" >
    <i type="logical" name="LREAL"> F  </i>
    <v name="ROPT">      0.00000000</v>
    <i type="int" name="LMAXPAW">  -100</i>
    <i type="int" name="LMAXMIX">     2</i>
    <i type="logical" name="NLSPLINE"> F  </i>
   </separator>
   <separator name="electronic startup" >
    <i type="int" name="ISTART">     1</i>
    <i type="int" name="ICHARG">    11</i>
    <i type="int" name="INIWAV">     1</i>
   </separator>
   <separator name="electronic spin" >
    <i type="int" name="ISPIN">     1</i>
    <i type="logical" name="LNONCOLLINEAR"> F  </i>
    <v name="MAGMOM">      1.00000000      1.00000000      1.00000000      1.00000000</v>
    <i name="NUPDOWN">     -1.00000000</i>
    <i type="logical" name="LSORBIT"> F  </i>
    <v name="SAXIS">      0.00000000      0.00000000      1.00000000</v>
    <i type="logical" name="LSPIRAL"> F  </i>
    <v name="QSPIRAL">      0.00000000      0.00000000      0.00000000</v>
    <i type="logical" name="LZEROZ"> F  </i>
   </separator>
   <separator name="electronic exchange-correlation" >
    <i type="logical" name="LASPH"> F  </i>
    <i type="logical" name="LMETAGGA"> F  </i>
   </separator>
   <separator name="electronic convergence" >
    <i type="int" name="NELM">    60</i>
    <i type="int" name="NELMDL">     0</i>
    <i type="int" name="NELMIN">     2</i>
    <i name="ENINI">    520.00000000</i>
    <separator name="electronic convergence detail" >
     <i type="logical" name="LDIAG"> T  </i>
     <i type="logical" name="LSUBROT"> F  </i>
     <i name="WEIMIN">      0.00000000</i>
     <i name="EBREAK">      0.00000000</i>
     <i name="DEPER">      0.30000000</i>
     <i type="int" name="NRMM">     4</i>
     <i name="TIME">      0.40000000</i>
    </separator>
   </separator>
   <separator name="electronic mixer" >
    <i name="AMIX">      0.40000000</i>
    <i name="BMIX">      1.00000000</i>
    <i name="AMIN">      0.10000000</i>
    <i name="AMIX_MAG">      1.60000000</i>
    <i name="BMIX_MAG">      1.00000000</i>
    <separator name="electronic mixer details" >
     <i type="int" name="IMIX">     4</i>
     <i type="logical" name="MIXFIRST"> F  </i>
     <i type="int" name="MAXMIX">   -45</i>
     <i name="WC">    100.00000000</i>
     <i type="int" name="INIMIX">     1</i>
     <i type="int" name="MIXPRE">     1</i>
     <i type="int" name="MREMOVE">     5</i>
    </separator>
   </separator>
   <separator name="electronic dipolcorrection" >
    <i type="logical" name="LDIPOL"> F  </i>
    <i type="logical" name="LMONO"> F  </i>
    <i type="int" name="IDIPOL">     0</i>
    <i name="EPSILON">      1.00000000</i>
    <v name="DIPOL">   -100.00000000   -100.00000000   -100.00000000</v>
    <i name="EFIELD">      0.00000000</i>
   </separator>
  </separator>
  <separator name="grids" >
   <i type="int" name="NGX">    18</i>
   <i type="int" name="NGY">    18</i>
   <i type="int" name="NGZ">    50</i>
   <i type="int" name="NGXF">    36</i>
   <i type="int" name="NGYF">    36</i>
   <i type="int" name="NGZF">   100</i>
   <i type="logical" name="ADDGRID"> F  </i>
  </separator>
  <separator name="ionic" >
   <i type="int" name="NSW">     0</i>
   <i type="int" name="IBRION">    -1</i>
   <i type="int" name="MDALGO">     0</i>
   <i type="int" name="ISIF">     2</i>
   <i name="PSTRESS">      0.00000000</i>
   <i name="EDIFFG">      0.00000010</i>
   <i type="int" name="NFREE">     0</i>
   <i name="POTIM">      0.50000000</i>
   <i name="SMASS">     -3.00000000</i>
   <i name="SCALEE">      1.00000000</i>
  </separator>
  <separator name="ionic md" >
   <i name="TEBEG">      0.00010000</i>
   <i name="TEEND">      0.00010000</i>
   <i type="int" name="NBLOCK">     1</i>
   <i type="int" name="KBLOCK">     1</i>
   <i type="int" name="NPACO">   256</i>
   <i name="APACO">     16.00000000</i>
  </separator>
  <separator name="symmetry" >
   <i type="int" name="ISYM">     2</i>
   <i name="SYMPREC">      0.00001000</i>
  </separator>
  <separator name="dos" >
   <i type="int" name="LORBIT">     0</i>
   <v name="RWIGS">     -1.00000000</v>
   <i type="int" name="NEDOS">   301</i>
   <i name="EMIN">     10.00000000</i>
   <i name="EMAX">    -10.00000000</i>
   <i name="EFERMI">      0.00000000</i>
  </separator>
  <separator name="writing" >
   <i type="int" name="NWRITE">     2</i>
   <i type="logical" name="LWAVE"> F  </i>
   <i type="logical" name="LDOWNSAMPLE"> F  </i>
   <i type="logical" name="LCHARG"> F  </i>
   <i type="logical" name="LPARD"> F  </i>
   <i type="logical" name="LVTOT"> F  </i>
   <i type="logical" name="LVHAR"> F  </i>
   <i type="logical" name="LELF"> F  </i>
   <i type="logical" name="LOPTICS"> F  </i>
   <v name="STM">      0.00000000      0.00000000      0.00000000      0.00000000      0.00000000      0.00000000      0.00000000</v>
  </separator>
  <separator name="performance" >
   <i type="int" name="NPAR">    20</i>
   <i type="int" name="NSIM">     4</i>
   <i type="int" name="NBLK">    -1</i>
   <i type="logical" name="LPLANE"> T  </i>
   <i type="logical" name="LSCALAPACK"> T  </i>
   <i type="logical" name="LSCAAWARE"> F  </i>
   <i type="logical" name="LSCALU"> F  </i>
   <i type="logical" name="LASYNC"> F  </i>
   <i type="logical" name="LORBITALREAL"> F  </i>
  </separator>
  <separator name="miscellaneous" >
   <i type="int" name="IDIOT">     3</i>
   <i type="int" name="ISPECIAL">     0</i>
   <i type="logical" name="LMUSIC"> F  </i>
   <v name="POMASS">     12.01100000</v>
   <v name="DARWINR">      0.00000000</v>
   <v name="DARWINV">      1.00000000</v>
   <i type="logical" name="LCORR"> T  </i>
  </separator>
  <i type="logical" name="GGA_COMPAT"> T  </i>
  <i type="logical" name="LBERRY"> F  </i>
  <i type="int" name="ICORELEVEL">     0</i>
  <i type="logical" name="LDAU"> F  </i>
  <i type="int" name="I_CONSTRAINED_M">     0</i>
  <separator name="electronic exchange-correlation" >
   <i type="string" name="GGA">--</i>
   <i type="int" name="VOSKOWN">     0</i>
   <i type="logical" name="LHFCALC"> F  </i>
   <i type="string" name="PRECFOCK"></i>
   <i type="logical" name="LSYMGRAD"> F  </i>
   <i type="logical" name="LHFONE"> F  </i>
   <i type="logical" name="LRHFCALC"> F  </i>
   <i type="logical" name="LTHOMAS"> F  </i>
   <i type="logical" name="LMODELHF"> F  </i>
   <i name="ENCUT4O">     -1.00000000</i>
   <i type="int" name="EXXOEP">     0</i>
   <i type="int" name="FOURORBIT">     0</i>
   <i name="AEXX">      0.00000000</i>
   <i name="HFALPHA">      0.00000000</i>
   <i name="MCALPHA">      0.00000000</i>
   <i name="ALDAX">      1.00000000</i>
   <i name="AGGAX">      1.00000000</i>
   <i name="ALDAC">      1.00000000</i>
   <i name="AGGAC">      1.00000000</i>
   <i type="int" name="NKREDX">     1</i>
   <i type="int" name="NKREDY">     1</i>
   <i type="int" name="NKREDZ">     1</i>
   <i type="logical" name="SHIFTRED"> F  </i>
   <i type="logical" name="ODDONLY"> F  </i>
   <i type="logical" name="EVENONLY"> F  </i>
   <i type="int" name="LMAXFOCK">     0</i>
   <i type="int" name="NMAXFOCKAE">     0</i>
   <i type="logical" name="LFOCKAEDFT"> F  </i>
   <i name="HFSCREEN">      0.00000000</i>
   <i name="HFSCREENC">      0.00000000</i>
   <i type="int" name="NBANDSGWLOW">     0</i>
  </separator>
  <separator name="vdW DFT" >
   <i type="logical" name="LUSE_VDW"> F  </i>
   <i name="Zab_VDW">     -0.84910000</i>
   <i name="PARAM1">      0.12340000</i>
   <i name="PARAM2">      1.00000000</i>
   <i name="PARAM3">      0.00000000</i>
  </separator>
  <separator name="model GW" >
   <i type="int" name="MODEL_GW">     0</i>
   <i name="MODEL_EPS0">      5.17553830</i>
   <i name="MODEL_ALPHA">      1.00000000</i>
  </separator>
  <separator name="linear response parameters" >
   <i type="logical" name="LEPSILON"> F  </i>
   <i type="logical" name="LRPA"> F  </i>
   <i type="logical" name="LNABLA"> F  </i>
   <i type="logical" name="LVEL"> F  </i>
   <i type="int" name="KINTER">     0</i>
   <i name="CSHIFT">      0.10000000</i>
   <i name="OMEGAMAX">     -1.00000000</i>
   <i name="DEG_THRESHOLD">      0.00200000</i>
   <i name="RTIME">     -0.10000000</i>
   <i name="WPLASMAI">      0.00000000</i>
   <v name="DFIELD">      0.00000000      0.00000000      0.00000000</v>
   <v name="WPLASMA">      0.00000000      0.00000000      0.00000000      0.00000000      0.00000000      0.00000000      0.00000000      0.00000000      0.00000000</v>
  </separator>
  <separator name="orbital magnetization" >
   <i type="logical" name="NUCIND"> F  </i>
   <v name="MAGPOS">      0.00000000      0.00000000      0.00000000</v>
   <i type="logical" name="LNICSALL"> T  </i>
   <i type="logical" name="ORBITALMAG"> F  </i>
   <i type="logical" name="LMAGBLOCH"> F  </i>
   <i type="logical" name="LCHIMAG"> F  </i>
   <i type="logical" name="LGAUGE"> T  </i>
   <i type="int" name="MAGATOM">     0</i>
   <v name="MAGDIPOL">      0.00000000      0.00000000      0.00000000</v>
   <v name="AVECCONST">      0.00000000      0.00000000      0.00000000</v>
  </separator>
  <separator name="response functions" >
   <i type="logical" name="LADDER"> F  </i>
   <i type="logical" name="LRPAFORCE"> F  </i>
   <i type="logical" name="LFXC"> F  </i>
   <i type="logical" name="LHARTREE"> T  </i>
   <i type="int" name="IBSE">     0</i>
   <v type="int" name="KPOINT">    -1     0     0     0</v>
   <i type="logical" name="LTCTE"> F  </i>
   <i type="logical" name="LTETE"> F  </i>
   <i type="logical" name="LTRIPLET"> F  </i>
   <i type="logical" name="LFXCEPS"> F  </i>
   <i type="logical" name="LFXHEG"> F  </i>
   <i type="int" name="NATURALO">     2</i>
   <i type="logical" name="L2ORDER"> F  </i>
   <i type="logical" name="LMP2LT"> F  </i>
   <i type="logical" name="LUSEW"> F  </i>
   <i name="ENCUTGW">     -2.00000000</i>
   <i name="ENCUTGWSOFT">     -2.00000000</i>
   <i name="ENCUTLF">     -1.00000000</i>
   <i type="int" name="LMAXMP2">    -1</i>
   <i name="SCISSOR">      0.00000000</i>
   <i type="int" name="NOMEGA">     0</i>
   <i type="int" name="NOMEGAR">     0</i>
   <i type="int" name="NBANDSGW">    -1</i>
   <i type="int" name="NBANDSO">    -1</i>
   <i type="int" name="NBANDSV">    -1</i>
   <i type="int" name="NELM">     1</i>
   <i type="int" name="NELMHF">     1</i>
   <i type="int" name="DIM">     3</i>
   <i type="int" name="ANTIRES">     0</i>
   <i name="OMEGAMAX">    -30.00000000</i>
   <i name="OMEGAMIN">    -30.00000000</i>
   <i name="OMEGATL">   -200.00000000</i>
   <i type="int" name="OMEGAGRID">   140</i>
   <i name="CSHIFT">     -0.10000000</i>
   <i type="logical" name="SELFENERGY"> F  </i>
   <i type="logical" name="LSPECTRAL"> F  </i>
   <i type="logical" name="LSPECTRALGW"> F  </i>
   <i type="logical" name="LSINGLES"> F  </i>
   <i type="logical" name="LFERMIGW"> F  </i>
   <i type="logical" name="ODDONLYGW"> F  </i>
   <i type="logical" name="EVENONLYGW"> F  </i>
   <i type="int" name="NKREDLFX">     1</i>
   <i type="int" name="NKREDLFY">     1</i>
   <i type="int" name="NKREDLFZ">     1</i>
   <i type="int" name="MAXMEM">  2800</i>
   <i type="int" name="TELESCOPE">     0</i>
   <i type="int" name="TAUPAR">     1</i>
   <i type="int" name="OMEGAPAR">    -1</i>
   <i name="LAMBDA">      1.00000000</i>
  </separator>
  <separator name="External order field" >
   <i name="OFIELD_KAPPA">      0.00000000</i>
   <v name="OFIELD_K">      0.00000000      0.00000000      0.00000000</v>
   <i name="OFIELD_Q6_NEAR">      0.00000000</i>
   <i name="OFIELD_Q6_FAR">      0.00000000</i>
   <i name="OFIELD_A">      0.00000000</i>
  </separator>
 </parameters>
 <atominfo>
  <atoms>       4 </atoms>
  <types>       1 </types>
  <array name="atoms" >
   <dimension dim="1">ion</dimension>
   <field type="string">element</field>
   <field type="int">atomtype</field>
   <set>
    <rc><c>C </c><c>   1</c></rc>
    <rc><c>C </c><c>   1</c></rc>
    <rc><c>C </c><c>   1</c></rc>
    <rc><c>C </c><c>   1</c></rc>
   </set>
  </array>
  <array name="atomtypes" >
   <dimension dim="1">type</dimension>
   <field type="int">atomspertype</field>
   <field type="string">element</field>
   <field>mass</field>
   <field>valence</field>
   <field type="string">pseudopotential</field>
   <set>
    <rc><c>   4</c><c>C </c><c>     12.01100000</c><c>      4.00000000</c><c>  PAW C 22Mar2012                       </c></rc>
   </set>
  </array>
 </atominfo>
 <structure name="initialpos" >
  <crystal>
   <varray name="basis" >
    <v>       2.44754191       0.00000000       0.00000000 </v>
    <v>      -1.22377096       2.11963347       0.00000000 </v>
    <v>       0.00000000       0.00000000       6.65079193 </v>
   </varray>
   <i name="volume">     34.50358869 </i>
   <varray name="rec_basis" >
    <v>       0.40857319       0.23588984       0.00000000 </v>
    <v>       0.00000000       0.47177968       0.00000000 </v>
    <v>       0.00000000       0.00000000       0.15035803 </v>
   </varray>
  </crystal>
  <varray name="positions" >
   <v>       0.00000000       0.00000000       0.00000000 </v>
   <v>       0.33333333       0.66666667       0.00000000 </v>
   <v>       0.33333333       0.66666667       0.50000000 </v>
   <v>       0.66666667       0.33333333       0.50000000 </v>
  </varray>
 </structure>
 <calculation>
  <scstep>
   <time name="dav">    0.18    0.18</time>
   <time name="total">    0.19    0.19</time>
   <energy>
    <i name="alphaZ">     35.50115494 </i>
    <i name="ewald">   -465.02100188 </i>
    <i name="hartreedc">   -181.07184646 </i>
    <i name="XCdc">     55.71408648 </i>
    <i name="pawpsdc">   1712.54632965 </i>
    <i name="pawaedc">  -1715.18044057 </i>
    <i name="eentropy">     -0.00098272 </i>
    <i name="bandstr">    -69.64925505 </i>
    <i name="atom">    586.71596219 </i>
    <i name="e_fr_energy">    -40.44599342 </i>
    <i name="e_wo_entrp">    -40.44501070 </i>
    <i name="e_0_energy">    -40.44550206 </i>
   </energy>
  </scstep>
  <scstep>
   <time name="dav">    0.20    0.20</time>
   <time name="total">    0.20    0.20</time>
   <energy>
    <i name="alphaZ">     35.50115494 </i>
    <i name="ewald">   -465.02100188 </i>
    <i name="hartreedc">   -181.07184646 </i>
    <i name="XCdc">     55.71408648 </i>
    <i name="pawpsdc">   1712.54632965 </i>
    <i name="pawaedc">  -1715.18044057 </i>
    <i name="eentropy">     -0.00098272 </i>
    <i name="bandstr">    -69.64925505 </i>
    <i name="atom">    586.71596219 </i>
    <i name="e_fr_energy">    -40.44599342 </i>
    <i name="e_wo_entrp">    -40.44501070 </i>
    <i name="e_0_energy">    -40.44550206 </i>
   </energy>
  </scstep>
  <structure>
   <crystal>
    <varray name="basis" >
     <v>       2.44754191       0.00000000       0.00000000 </v>
     <v>      -1.22377096       2.11963347       0.00000000 </v>
     <v>       0.00000000       0.00000000       6.65079193 </v>
    </varray>
    <i name="volume">     34.50358869 </i>
    <varray name="rec_basis" >
     <v>       0.40857319       0.23588984       0.00000000 </v>
     <v>       0.00000000       0.47177968       0.00000000 </v>
     <v>       0.00000000       0.00000000       0.15035803 </v>
    </varray>
   </crystal>
   <varray name="positions" >
    <v>       0.00000000       0.00000000       0.00000000 </v>
    <v>       0.33333333       0.66666667       0.00000000 </v>
    <v>       0.33333333       0.66666667       0.50000000 </v>
    <v>       0.66666667       0.33333333       0.50000000 </v>
   </varray>
  </structure>
  <varray name="forces" >
   <v>      -0.00000000       0.00000000       0.00000000 </v>
   <v>      -0.00000000       0.00000000       0.00000000 </v>
   <v>       0.00000000       0.00000000       0.00000000 </v>
   <v>       0.00000000      -0.00000000       0.00000000 </v>
  </varray>
  <varray name="stress" >
   <v>      -1.14909163       0.00000000      -0.00000000 </v>
   <v>       0.00000000      -1.14909163      -0.00000000 </v>
   <v>       0.00000000       0.00000000      -1.67360225 </v>
  </varray>
  <energy>
   <i name="e_fr_energy">    -40.44599342 </i>
   <i name="e_wo_entrp">    -40.44550206 </i>
   <i name="e_0_energy">     -0.00098272 </i>
  </energy>
  <time name="totalsc">   14.29   15.09</time>
  <eigenvalues>
   <array>
    <dimension dim="1">band</dimension>
    <dimension dim="2">kpoint</dimension>
    <dimension dim="3">spin</dimension>
    <field>eigene</field>
    <field>occ</field>
    <set>
     <set comment="spin 1">
      <set comment="kpoint 1">
       <r>  -14.8504    1.0000 </r>
       <r>  -14.5103    1.0000 </r>
       <r>   -4.0047    1.0000 </r>
       <r>   -1.8676    1.0000 </r>
       <r>    1.7641    1.0000 </r>
       <r>    1.7641    1.0000 </r>
       <r>    1.7837    1.0000 </r>
       <r>    1.7837    1.0000 </r>
       <r>    8.6439    0.0000 </r>
       <r>   13.1792    0.0000 </r>
       <r>   13.1792    0.0000 </r>
       <r>   13.2363    0.0000 </r>
       <r>   13.2363    0.0000 </r>
       <r>   15.0429    0.0000 </r>
       <r>   16.2794    0.0000 </r>
       <r>   16.6043    0.0000 </r>
       <r>   17.9797    0.0000 </r>
       <r>   18.2227    0.0000 </r>
       <r>   23.3395    0.0000 </r>
       <r>   27.4639    0.0000 </r>
      </set>
      <set comment="kpoint 2">
       <r>  -14.7435    1.0000 </r>
       <r>  -14.4056    1.0000 </r>
       <r>   -3.8732    1.0000 </r>
       <r>   -1.7449    1.0000 </r>
       <r>    1.3416    1.0000 </r>
       <r>    1.3725    1.0000 </r>
       <r>    1.5334    1.0000 </r>
       <r>    1.5607    1.0000 </r>
       <r>    8.7728    0.0000 </r>
       <r>   13.2225    0.0000 </r>
       <r>   13.3011    0.0000 </r>
       <r>   13.6375    0.0000 </r>
       <r>   13.6943    0.0000 </r>
       <r>   15.1394    0.0000 </r>
       <r>   15.8969    0.0000 </r>
       <r>   16.1754    0.0000 </r>
       <r>   18.1383    0.0000 </r>
       <r>   18.4110    0.0000 </r>
       <r>   23.3946    0.0000 </r>
       <r>   27.8132    0.0000 </r>
      </set>
      <set comment="kpoint 3">
       <r>  -14.4235    1.0000 </r>
       <r>  -14.0923    1.0000 </r>
       <r>   -3.4801    1.0000 </r>
       <r>   -1.3794    1.0000 </r>
       <r>    0.2166    1.0000 </r>
       <r>    0.2720    1.0000 </r>
       <r>    0.9533    1.0000 </r>
       <r>    0.9922    1.0000 </r>
       <r>    9.1609    0.0000 </r>
       <r>   13.2330    0.0000 </r>
       <r>   13.3804    0.0000 </r>
       <r>   14.8048    0.0000 </r>
       <r>   14.8985    0.0000 </r>
       <r>   14.9537    0.0000 </r>
       <r>   15.1340    0.0000 </r>
       <r>   15.4783    0.0000 </r>
       <r>   18.6538    0.0000 </r>
       <r>   18.9772    0.0000 </r>
       <r>   23.7368    0.0000 </r>
       <r>   28.6715    0.0000 </r>
      </set>
      <set comment="kpoint 4">
       <r>  -13.8927    1.0000 </r>
       <r>  -13.5725    1.0000 </r>
       <r>   -2.8311    1.0000 </r>
       <r>   -1.3334    1.0000 </r>
       <r>   -1.2482    1.0000 </r>
       <r>   -0.7801    1.0000 </r>
       <r>    0.2319    1.0000 </r>
       <r>    0.2793    1.0000 </r>
       <r>    9.8085    0.0000 </r>
       <r>   13.0893    0.0000 </r>
       <r>   13.2005    0.0000 </r>
       <r>   13.3332    0.0000 </r>
       <r>   13.7163    0.0000 </r>
       <r>   15.9223    0.0000 </r>
       <r>   16.7295    0.0000 </r>
       <r>   16.8097    0.0000 </r>
       <r>   19.4194    0.0000 </r>
       <r>   20.0082    0.0000 </r>
       <r>   24.1584    0.0000 </r>
       <r>   25.9140    0.0000 </r>
      </set>
      <set comment="kpoint 5">
       <r>  -13.1551    1.0000 </r>
       <r>  -12.8503    1.0000 </r>
       <r>   -3.0753    1.0000 </r>
       <r>   -2.9583    1.0000 </r>
       <r>   -1.9380    1.0000 </r>
       <r>   -0.4680    1.0000 </r>
       <r>   -0.4150    1.0000 </r>
       <r>    0.0333    1.0000 </r>
       <r>   10.7098    0.0000 </r>
       <r>   11.2782    0.0000 </r>
       <r>   12.0376    0.0000 </r>
       <r>   12.8406    0.0000 </r>
       <r>   13.1756    0.0000 </r>
       <r>   16.5391    0.0000 </r>
       <r>   18.9089    0.0000 </r>
       <r>   19.0145    0.0000 </r>
       <r>   20.1589    0.0000 </r>
       <r>   21.5516    0.0000 </r>
       <r>   23.8428    0.0000 </r>
       <r>   24.7197    0.0000 </r>
      </set>
      <set comment="kpoint 6">
       <r>  -12.2178    1.0000 </r>
       <r>  -11.9323    1.0000 </r>
       <r>   -4.8561    1.0000 </r>
       <r>   -4.7077    1.0000 </r>
       <r>   -1.0492    1.0000 </r>
       <r>   -0.9926    1.0000 </r>
       <r>   -0.8256    1.0000 </r>
       <r>    1.0150    1.0000 </r>
       <r>    9.2720    0.0000 </r>
       <r>   10.2637    0.0000 </r>
       <r>   11.8381    0.0000 </r>
       <r>   12.5914    0.0000 </r>
       <r>   13.0012    0.0000 </r>
       <r>   17.2551    0.0000 </r>
       <r>   19.7092    0.0000 </r>
       <r>   21.3659    0.0000 </r>
       <r>   21.6371    0.0000 </r>
       <r>   22.0664    0.0000 </r>
       <r>   22.9604    0.0000 </r>
       <r>   26.0593    0.0000 </r>
      </set>
      <set comment="kpoint 7">
       <r>  -11.0940    1.0000 </r>
       <r>  -10.8320    1.0000 </r>
       <r>   -6.5778    1.0000 </r>
       <r>   -6.4006    1.0000 </r>
       <r>   -1.4588    1.0000 </r>
       <r>   -1.4002    1.0000 </r>
       <r>    0.4440    1.0000 </r>
       <r>    2.0321    1.0000 </r>
       <r>    7.4473    0.0000 </r>
       <r>    8.5555    0.0000 </r>
       <r>   12.3536    0.0000 </r>
       <r>   12.7393    0.0000 </r>
       <r>   13.3705    0.0000 </r>
       <r>   18.0059    0.0000 </r>
       <r>   18.4040    0.0000 </r>
       <r>   20.9357    0.0000 </r>
       <r>   23.5886    0.0000 </r>
       <r>   23.8073    0.0000 </r>
       <r>   24.7905    0.0000 </r>
       <r>   25.7069    0.0000 </r>
      </set>
      <set comment="kpoint 8">
       <r>   -9.8340    1.0000 </r>
       <r>   -9.6131    1.0000 </r>
       <r>   -8.1292    1.0000 </r>
       <r>   -7.9431    1.0000 </r>
       <r>   -1.6694    1.0000 </r>
       <r>   -1.6099    1.0000 </r>
       <r>    1.6464    1.0000 </r>
       <r>    2.6384    1.0000 </r>
       <r>    6.3241    0.0000 </r>
       <r>    7.2119    0.0000 </r>
       <r>   12.2547    0.0000 </r>
       <r>   12.6972    0.0000 </r>
       <r>   14.9176    0.0000 </r>
       <r>   16.6642    0.0000 </r>
       <r>   18.6776    0.0000 </r>
       <r>   19.9727    0.0000 </r>
       <r>   24.7468    0.0000 </r>
       <r>   24.7711    0.0000 </r>
       <r>   24.9383    0.0000 </r>
       <r>   25.2847    0.0000 </r>
      </set>
      <set comment="kpoint 9">
       <r>  -14.5302    1.0000 </r>
       <r>  -14.1966    1.0000 </r>
       <r>   -3.6108    1.0000 </r>
       <r>   -1.5008    1.0000 </r>
       <r>    0.6295    1.0000 </r>
       <r>    0.6597    1.0000 </r>
       <r>    1.0819    1.0000 </r>
       <r>    1.1052    1.0000 </r>
       <r>    9.0317    0.0000 </r>
       <r>   13.3792    0.0000 </r>
       <r>   13.4859    0.0000 </r>
       <r>   14.3510    0.0000 </r>
       <r>   14.4102    0.0000 </r>
       <r>   15.1532    0.0000 </r>
       <r>   15.3539    0.0000 </r>
       <r>   15.5130    0.0000 </r>
       <r>   18.5130    0.0000 </r>
       <r>   18.7986    0.0000 </r>
       <r>   23.7346    0.0000 </r>
       <r>   28.4349    0.0000 </r>
      </set>
      <set comment="kpoint 10">
       <r>  -14.1047    1.0000 </r>
       <r>  -13.7801    1.0000 </r>
       <r>   -3.0896    1.0000 </r>
       <r>   -1.0180    1.0000 </r>
       <r>   -0.6176    1.0000 </r>
       <r>   -0.5595    1.0000 </r>
       <r>    0.3357    1.0000 </r>
       <r>    0.3752    1.0000 </r>
       <r>    9.5514    0.0000 </r>
       <r>   13.5046    0.0000 </r>
       <r>   13.6862    0.0000 </r>
       <r>   13.8653    0.0000 </r>
       <r>   14.2645    0.0000 </r>
       <r>   15.5726    0.0000 </r>
       <r>   15.6556    0.0000 </r>
       <r>   15.7091    0.0000 </r>
       <r>   19.3105    0.0000 </r>
       <r>   19.6483    0.0000 </r>
       <r>   23.8601    0.0000 </r>
       <r>   25.3901    0.0000 </r>
      </set>
      <set comment="kpoint 11">
       <r>  -13.4705    1.0000 </r>
       <r>  -13.1591    1.0000 </r>
       <r>   -2.3177    1.0000 </r>
       <r>   -2.2086    1.0000 </r>
       <r>   -2.1139    1.0000 </r>
       <r>   -0.4377    1.0000 </r>
       <r>   -0.3834    1.0000 </r>
       <r>   -0.3098    1.0000 </r>
       <r>   10.3292    0.0000 </r>
       <r>   12.1454    0.0000 </r>
       <r>   12.7302    0.0000 </r>
       <r>   13.3865    0.0000 </r>
       <r>   13.6734    0.0000 </r>
       <r>   16.2237    0.0000 </r>
       <r>   17.2079    0.0000 </r>
       <r>   17.4248    0.0000 </r>
       <r>   20.5245    0.0000 </r>
       <r>   21.1958    0.0000 </r>
       <r>   23.6939    0.0000 </r>
       <r>   24.4642    0.0000 </r>
      </set>
      <set comment="kpoint 12">
       <r>  -12.6331    1.0000 </r>
       <r>  -12.3391    1.0000 </r>
       <r>   -3.9419    1.0000 </r>
       <r>   -3.8128    1.0000 </r>
       <r>   -1.3121    1.0000 </r>
       <r>   -1.1093    1.0000 </r>
       <r>   -1.0469    1.0000 </r>
       <r>    0.5946    1.0000 </r>
       <r>   10.2106    0.0000 </r>
       <r>   11.0340    0.0000 </r>
       <r>   11.3559    0.0000 </r>
       <r>   13.1521    0.0000 </r>
       <r>   13.5279    0.0000 </r>
       <r>   16.8397    0.0000 </r>
       <r>   18.7788    0.0000 </r>
       <r>   19.4923    0.0000 </r>
       <r>   21.5934    0.0000 </r>
       <r>   22.0445    0.0000 </r>
       <r>   23.0354    0.0000 </r>
       <r>   25.5929    0.0000 </r>
      </set>
      <set comment="kpoint 13">
       <r>  -11.6019    1.0000 </r>
       <r>  -11.3291    1.0000 </r>
       <r>   -5.6801    1.0000 </r>
       <r>   -5.5194    1.0000 </r>
       <r>   -1.6191    1.0000 </r>
       <r>   -1.5521    1.0000 </r>
       <r>   -0.1102    1.0000 </r>
       <r>    1.6216    1.0000 </r>
       <r>    8.2918    0.0000 </r>
       <r>    9.3122    0.0000 </r>
       <r>   12.5779    0.0000 </r>
       <r>   12.9469    0.0000 </r>
       <r>   13.3854    0.0000 </r>
       <r>   17.4889    0.0000 </r>
       <r>   18.9268    0.0000 </r>
       <r>   20.6095    0.0000 </r>
       <r>   21.5306    0.0000 </r>
       <r>   23.2694    0.0000 </r>
       <r>   24.6222    0.0000 </r>
       <r>   24.8757    0.0000 </r>
      </set>
      <set comment="kpoint 14">
       <r>  -10.3993    1.0000 </r>
       <r>  -10.1539    1.0000 </r>
       <r>   -7.3266    1.0000 </r>
       <r>   -7.1404    1.0000 </r>
       <r>   -1.9352    1.0000 </r>
       <r>   -1.8659    1.0000 </r>
       <r>    1.1790    1.0000 </r>
       <r>    2.5270    1.0000 </r>
       <r>    6.7396    0.0000 </r>
       <r>    7.7504    0.0000 </r>
       <r>   12.7451    0.0000 </r>
       <r>   13.1856    0.0000 </r>
       <r>   14.1940    0.0000 </r>
       <r>   17.5639    0.0000 </r>
       <r>   18.1010    0.0000 </r>
       <r>   19.7695    0.0000 </r>
       <r>   23.5023    0.0000 </r>
       <r>   24.1114    0.0000 </r>
       <r>   24.3852    0.0000 </r>
       <r>   26.1802    0.0000 </r>
      </set>
      <set comment="kpoint 15">
       <r>   -9.3137    1.0000 </r>
       <r>   -9.1901    1.0000 </r>
       <r>   -8.4563    1.0000 </r>
       <r>   -8.3638    1.0000 </r>
       <r>   -2.0422    1.0000 </r>
       <r>   -1.9721    1.0000 </r>
       <r>    2.0137    1.0000 </r>
       <r>    2.7460    1.0000 </r>
       <r>    6.2139    0.0000 </r>
       <r>    6.9042    0.0000 </r>
       <r>   12.6929    0.0000 </r>
       <r>   13.1564    0.0000 </r>
       <r>   15.8129    0.0000 </r>
       <r>   15.8760    0.0000 </r>
       <r>   18.4843    0.0000 </r>
       <r>   19.2393    0.0000 </r>
       <r>   24.0957    0.0000 </r>
       <r>   24.2116    0.0000 </r>
       <r>   24.9445    0.0000 </r>
       <r>   26.5138    0.0000 </r>
      </set>
      <set comment="kpoint 16">
       <r>  -13.5760    1.0000 </r>
       <r>  -13.2624    1.0000 </r>
       <r>   -2.4450    1.0000 </r>
       <r>   -1.6937    1.0000 </r>
       <r>   -1.6444    1.0000 </r>
       <r>   -0.6409    1.0000 </r>
       <r>   -0.6057    1.0000 </r>
       <r>   -0.4252    1.0000 </r>
       <r>   10.2036    0.0000 </r>
       <r>   12.5177    0.0000 </r>
       <r>   12.9680    0.0000 </r>
       <r>   14.1396    0.0000 </r>
       <r>   14.3396    0.0000 </r>
       <r>   16.0784    0.0000 </r>
       <r>   16.1175    0.0000 </r>
       <r>   16.2037    0.0000 </r>
       <r>   20.8720    0.0000 </r>
       <r>   21.0326    0.0000 </r>
       <r>   23.3148    0.0000 </r>
       <r>   24.4596    0.0000 </r>
      </set>
      <set comment="kpoint 17">
       <r>  -12.8420    1.0000 </r>
       <r>  -12.5435    1.0000 </r>
       <r>   -3.0995    1.0000 </r>
       <r>   -3.0109    1.0000 </r>
       <r>   -1.5677    1.0000 </r>
       <r>   -1.5579    1.0000 </r>
       <r>   -1.5071    1.0000 </r>
       <r>    0.3799    1.0000 </r>
       <r>   10.8743    0.0000 </r>
       <r>   11.1107    0.0000 </r>
       <r>   11.4491    0.0000 </r>
       <r>   14.3658    0.0000 </r>
       <r>   14.6930    0.0000 </r>
       <r>   16.5177    0.0000 </r>
       <r>   17.0118    0.0000 </r>
       <r>   17.3787    0.0000 </r>
       <r>   21.5261    0.0000 </r>
       <r>   22.1417    0.0000 </r>
       <r>   23.1196    0.0000 </r>
       <r>   25.0089    0.0000 </r>
      </set>
      <set comment="kpoint 18">
       <r>  -11.9104    1.0000 </r>
       <r>  -11.6313    1.0000 </r>
       <r>   -4.7174    1.0000 </r>
       <r>   -4.5844    1.0000 </r>
       <r>   -2.2511    1.0000 </r>
       <r>   -2.1703    1.0000 </r>
       <r>   -0.4525    1.0000 </r>
       <r>    1.3552    1.0000 </r>
       <r>    9.0755    0.0000 </r>
       <r>    9.8507    0.0000 </r>
       <r>   12.2601    0.0000 </r>
       <r>   14.2162    0.0000 </r>
       <r>   14.6641    0.0000 </r>
       <r>   16.9319    0.0000 </r>
       <r>   18.1155    0.0000 </r>
       <r>   19.3286    0.0000 </r>
       <r>   20.0290    0.0000 </r>
       <r>   22.9931    0.0000 </r>
       <r>   24.3374    0.0000 </r>
       <r>   25.3013    0.0000 </r>
      </set>
      <set comment="kpoint 19">
       <r>  -10.7960    1.0000 </r>
       <r>  -10.5405    1.0000 </r>
       <r>   -6.3581    1.0000 </r>
       <r>   -6.1910    1.0000 </r>
       <r>   -2.6992    1.0000 </r>
       <r>   -2.6095    1.0000 </r>
       <r>    0.8130    1.0000 </r>
       <r>    2.3805    1.0000 </r>
       <r>    7.3651    0.0000 </r>
       <r>    8.2817    0.0000 </r>
       <r>   13.6136    0.0000 </r>
       <r>   14.0413    0.0000 </r>
       <r>   14.5531    0.0000 </r>
       <r>   17.2628    0.0000 </r>
       <r>   18.1235    0.0000 </r>
       <r>   18.8932    0.0000 </r>
       <r>   21.3985    0.0000 </r>
       <r>   23.5833    0.0000 </r>
       <r>   24.0925    0.0000 </r>
       <r>   25.6298    0.0000 </r>
      </set>
      <set comment="kpoint 20">
       <r>   -9.5529    1.0000 </r>
       <r>   -9.3388    1.0000 </r>
       <r>   -7.8642    1.0000 </r>
       <r>   -7.6864    1.0000 </r>
       <r>   -2.9227    1.0000 </r>
       <r>   -2.8296    1.0000 </r>
       <r>    2.0267    1.0000 </r>
       <r>    3.0181    1.0000 </r>
       <r>    6.2881    0.0000 </r>
       <r>    6.9777    0.0000 </r>
       <r>   13.9039    0.0000 </r>
       <r>   14.4361    0.0000 </r>
       <r>   15.2324    0.0000 </r>
       <r>   16.8419    0.0000 </r>
       <r>   17.5417    0.0000 </r>
       <r>   18.0771    0.0000 </r>
       <r>   23.0471    0.0000 </r>
       <r>   23.7815    0.0000 </r>
       <r>   24.3099    0.0000 </r>
       <r>   27.3522    0.0000 </r>
      </set>
      <set comment="kpoint 21">
       <r>  -12.0138    1.0000 </r>
       <r>  -11.7325    1.0000 </r>
       <r>   -4.0791    1.0000 </r>
       <r>   -4.0098    1.0000 </r>
       <r>   -2.7603    1.0000 </r>
       <r>   -2.7083    1.0000 </r>
       <r>   -0.5681    1.0000 </r>
       <r>    1.2634    1.0000 </r>
       <r>    9.4411    0.0000 </r>
       <r>   10.0195    0.0000 </r>
       <r>   12.1384    0.0000 </r>
       <r>   15.5073    0.0000 </r>
       <r>   15.8276    0.0000 </r>
       <r>   16.6890    0.0000 </r>
       <r>   17.0831    0.0000 </r>
       <r>   17.4857    0.0000 </r>
       <r>   19.5474    0.0000 </r>
       <r>   23.8702    0.0000 </r>
       <r>   24.2816    0.0000 </r>
       <r>   24.9350    0.0000 </r>
      </set>
      <set comment="kpoint 22">
       <r>  -10.9978    1.0000 </r>
       <r>  -10.7378    1.0000 </r>
       <r>   -5.3931    1.0000 </r>
       <r>   -5.2724    1.0000 </r>
       <r>   -3.5986    1.0000 </r>
       <r>   -3.5097    1.0000 </r>
       <r>    0.6178    1.0000 </r>
       <r>    2.2819    1.0000 </r>
       <r>    7.8922    0.0000 </r>
       <r>    8.5750    0.0000 </r>
       <r>   13.3906    0.0000 </r>
       <r>   15.6816    0.0000 </r>
       <r>   16.3122    0.0000 </r>
       <r>   16.6734    0.0000 </r>
       <r>   17.5834    0.0000 </r>
       <r>   17.9989    0.0000 </r>
       <r>   18.8599    0.0000 </r>
       <r>   23.7853    0.0000 </r>
       <r>   23.9629    0.0000 </r>
       <r>   25.1652    0.0000 </r>
      </set>
      <set comment="kpoint 23">
       <r>   -9.8208    1.0000 </r>
       <r>   -9.5886    1.0000 </r>
       <r>   -6.8670    1.0000 </r>
       <r>   -6.7029    1.0000 </r>
       <r>   -4.0262    1.0000 </r>
       <r>   -3.9147    1.0000 </r>
       <r>    1.9079    1.0000 </r>
       <r>    3.2383    1.0000 </r>
       <r>    6.4955    0.0000 </r>
       <r>    7.2092    0.0000 </r>
       <r>   14.8210    0.0000 </r>
       <r>   15.5357    0.0000 </r>
       <r>   16.2917    0.0000 </r>
       <r>   16.5862    0.0000 </r>
       <r>   17.0576    0.0000 </r>
       <r>   17.5606    0.0000 </r>
       <r>   20.9503    0.0000 </r>
       <r>   23.2003    0.0000 </r>
       <r>   23.8524    0.0000 </r>
       <r>   24.8342    0.0000 </r>
      </set>
      <set comment="kpoint 24">
       <r>   -8.7773    1.0000 </r>
       <r>   -8.6601    1.0000 </r>
       <r>   -7.9226    1.0000 </r>
       <r>   -7.8442    1.0000 </r>
       <r>   -4.1581    1.0000 </r>
       <r>   -4.0412    1.0000 </r>
       <r>    2.7885    1.0000 </r>
       <r>    3.4995    1.0000 </r>
       <r>    6.1099    0.0000 </r>
       <r>    6.2723    0.0000 </r>
       <r>   15.4583    0.0000 </r>
       <r>   16.2312    0.0000 </r>
       <r>   16.2831    0.0000 </r>
       <r>   16.4098    0.0000 </r>
       <r>   16.6480    0.0000 </r>
       <r>   16.7204    0.0000 </r>
       <r>   22.3134    0.0000 </r>
       <r>   22.9210    0.0000 </r>
       <r>   23.9966    0.0000 </r>
       <r>   24.8696    0.0000 </r>
      </set>
      <set comment="kpoint 25">
       <r>   -9.9156    1.0000 </r>
       <r>   -9.6797    1.0000 </r>
       <r>   -6.1264    1.0000 </r>
       <r>   -6.0382    1.0000 </r>
       <r>   -4.7512    1.0000 </r>
       <r>   -4.6858    1.0000 </r>
       <r>    1.8534    1.0000 </r>
       <r>    3.3048    1.0000 </r>
       <r>    6.6354    0.0000 </r>
       <r>    7.3083    0.0000 </r>
       <r>   14.6996    0.0000 </r>
       <r>   16.2172    0.0000 </r>
       <r>   16.6615    0.0000 </r>
       <r>   16.9092    0.0000 </r>
       <r>   17.0958    0.0000 </r>
       <r>   18.5340    0.0000 </r>
       <r>   18.6882    0.0000 </r>
       <r>   23.3090    0.0000 </r>
       <r>   23.7757    0.0000 </r>
       <r>   25.2578    0.0000 </r>
      </set>
      <set comment="kpoint 26">
       <r>   -8.7272    1.0000 </r>
       <r>   -8.5326    1.0000 </r>
       <r>   -7.2219    1.0000 </r>
       <r>   -7.0891    1.0000 </r>
       <r>   -5.3142    1.0000 </r>
       <r>   -5.2065    1.0000 </r>
       <r>    3.1085    1.0000 </r>
       <r>    4.1134    1.0000 </r>
       <r>    5.5900    0.0000 </r>
       <r>    6.1705    0.0000 </r>
       <r>   15.8980    0.0000 </r>
       <r>   15.9880    0.0000 </r>
       <r>   16.0664    0.0000 </r>
       <r>   16.8344    0.0000 </r>
       <r>   17.1391    0.0000 </r>
       <r>   18.5118    0.0000 </r>
       <r>   21.2114    0.0000 </r>
       <r>   22.6349    0.0000 </r>
       <r>   23.4642    0.0000 </r>
       <r>   24.1453    0.0000 </r>
      </set>
      <set comment="kpoint 27">
       <r>   -7.7584    1.0000 </r>
       <r>   -7.6507    1.0000 </r>
       <r>   -7.6507    1.0000 </r>
       <r>   -7.5474    1.0000 </r>
       <r>   -5.9478    1.0000 </r>
       <r>   -5.9478    1.0000 </r>
       <r>    4.0696    1.0000 </r>
       <r>    4.7279    0.6132 </r>
       <r>    4.7279    0.6132 </r>
       <r>    5.5275    0.0000 </r>
       <r>   15.6178    0.0000 </r>
       <r>   15.6178    0.0000 </r>
       <r>   16.8736    0.0000 </r>
       <r>   17.0770    0.0000 </r>
       <r>   17.0770    0.0000 </r>
       <r>   20.3846    0.0000 </r>
       <r>   20.6898    0.0000 </r>
       <r>   21.1552    0.0000 </r>
       <r>   23.0587    0.0000 </r>
       <r>   24.2643    0.0000 </r>
      </set>
      <set comment="kpoint 28">
       <r>  -14.7701    1.0000 </r>
       <r>  -14.6003    1.0000 </r>
       <r>   -3.5451    1.0000 </r>
       <r>   -2.4958    1.0000 </r>
       <r>    1.7690    1.0000 </r>
       <r>    1.7690    1.0000 </r>
       <r>    1.7788    1.0000 </r>
       <r>    1.7788    1.0000 </r>
       <r>    9.9766    0.0000 </r>
       <r>   12.9650    0.0000 </r>
       <r>   13.1929    0.0000 </r>
       <r>   13.1930    0.0000 </r>
       <r>   13.2214    0.0000 </r>
       <r>   13.2214    0.0000 </r>
       <r>   16.3285    0.0000 </r>
       <r>   16.4766    0.0000 </r>
       <r>   18.0518    0.0000 </r>
       <r>   18.1773    0.0000 </r>
       <r>   25.6721    0.0000 </r>
       <r>   27.3379    0.0000 </r>
      </set>
      <set comment="kpoint 29">
       <r>  -14.6637    1.0000 </r>
       <r>  -14.4950    1.0000 </r>
       <r>   -3.4152    1.0000 </r>
       <r>   -2.3702    1.0000 </r>
       <r>    1.3493    1.0000 </r>
       <r>    1.3648    1.0000 </r>
       <r>    1.5402    1.0000 </r>
       <r>    1.5539    1.0000 </r>
       <r>   10.0985    0.0000 </r>
       <r>   13.0191    0.0000 </r>
       <r>   13.2826    0.0000 </r>
       <r>   13.3030    0.0000 </r>
       <r>   13.6513    0.0000 </r>
       <r>   13.6796    0.0000 </r>
       <r>   15.9537    0.0000 </r>
       <r>   16.1026    0.0000 </r>
       <r>   18.2273    0.0000 </r>
       <r>   18.3407    0.0000 </r>
       <r>   25.7604    0.0000 </r>
       <r>   27.6875    0.0000 </r>
      </set>
      <set comment="kpoint 30">
       <r>  -14.3452    1.0000 </r>
       <r>  -14.1798    1.0000 </r>
       <r>   -3.0275    1.0000 </r>
       <r>   -1.9957    1.0000 </r>
       <r>    0.2304    1.0000 </r>
       <r>    0.2581    1.0000 </r>
       <r>    0.9630    1.0000 </r>
       <r>    0.9824    1.0000 </r>
       <r>   10.4646    0.0000 </r>
       <r>   13.1267    0.0000 </r>
       <r>   13.3448    0.0000 </r>
       <r>   13.5546    0.0000 </r>
       <r>   14.9089    0.0000 </r>
       <r>   14.9119    0.0000 </r>
       <r>   14.9393    0.0000 </r>
       <r>   15.1147    0.0000 </r>
       <r>   18.7505    0.0000 </r>
       <r>   18.9378    0.0000 </r>
       <r>   25.7673    0.0000 </r>
       <r>   28.3531    0.0000 </r>
      </set>
      <set comment="kpoint 31">
       <r>  -13.8168    1.0000 </r>
       <r>  -13.6570    1.0000 </r>
       <r>   -2.3882    1.0000 </r>
       <r>   -1.3824    1.0000 </r>
       <r>   -1.3097    1.0000 </r>
       <r>   -1.2696    1.0000 </r>
       <r>    0.2437    1.0000 </r>
       <r>    0.2674    1.0000 </r>
       <r>   11.0644    0.0000 </r>
       <r>   13.0467    0.0000 </r>
       <r>   13.2218    0.0000 </r>
       <r>   13.3476    0.0000 </r>
       <r>   13.6140    0.0000 </r>
       <r>   14.1423    0.0000 </r>
       <r>   16.7489    0.0000 </r>
       <r>   16.7869    0.0000 </r>
       <r>   19.5527    0.0000 </r>
       <r>   19.9630    0.0000 </r>
       <r>   25.7585    0.0000 </r>
       <r>   26.1798    0.0000 </r>
      </set>
      <set comment="kpoint 32">
       <r>  -13.0826    1.0000 </r>
       <r>  -12.9304    1.0000 </r>
       <r>   -3.0467    1.0000 </r>
       <r>   -2.9882    1.0000 </r>
       <r>   -1.5096    1.0000 </r>
       <r>   -0.5392    1.0000 </r>
       <r>   -0.4548    1.0000 </r>
       <r>   -0.4283    1.0000 </r>
       <r>   11.3372    0.0000 </r>
       <r>   11.7878    0.0000 </r>
       <r>   12.0273    0.0000 </r>
       <r>   12.8994    0.0000 </r>
       <r>   13.1677    0.0000 </r>
       <r>   14.8091    0.0000 </r>
       <r>   18.9258    0.0000 </r>
       <r>   19.0614    0.0000 </r>
       <r>   20.3418    0.0000 </r>
       <r>   20.9107    0.0000 </r>
       <r>   23.8759    0.0000 </r>
       <r>   25.2692    0.0000 </r>
      </set>
      <set comment="kpoint 33">
       <r>  -12.1497    1.0000 </r>
       <r>  -12.0070    1.0000 </r>
       <r>   -4.8200    1.0000 </r>
       <r>   -4.7458    1.0000 </r>
       <r>   -1.0351    1.0000 </r>
       <r>   -1.0069    1.0000 </r>
       <r>   -0.4206    1.0000 </r>
       <r>    0.4880    1.0000 </r>
       <r>    9.4607    0.0000 </r>
       <r>    9.9633    0.0000 </r>
       <r>   12.6143    0.0000 </r>
       <r>   12.7289    0.0000 </r>
       <r>   13.2998    0.0000 </r>
       <r>   15.7040    0.0000 </r>
       <r>   20.1503    0.0000 </r>
       <r>   21.3238    0.0000 </r>
       <r>   21.3926    0.0000 </r>
       <r>   21.7444    0.0000 </r>
       <r>   23.9146    0.0000 </r>
       <r>   24.8913    0.0000 </r>
      </set>
      <set comment="kpoint 34">
       <r>  -11.0311    1.0000 </r>
       <r>  -10.9003    1.0000 </r>
       <r>   -6.5348    1.0000 </r>
       <r>   -6.4463    1.0000 </r>
       <r>   -1.4442    1.0000 </r>
       <r>   -1.4149    1.0000 </r>
       <r>    0.8076    1.0000 </r>
       <r>    1.5979    1.0000 </r>
       <r>    7.6416    0.0000 </r>
       <r>    8.2011    0.0000 </r>
       <r>   12.4610    0.0000 </r>
       <r>   12.6608    0.0000 </r>
       <r>   14.4505    0.0000 </r>
       <r>   16.7008    0.0000 </r>
       <r>   19.0873    0.0000 </r>
       <r>   20.3706    0.0000 </r>
       <r>   23.5382    0.0000 </r>
       <r>   23.7613    0.0000 </r>
       <r>   25.1508    0.0000 </r>
       <r>   26.4383    0.0000 </r>
      </set>
      <set comment="kpoint 35">
       <r>   -9.7801    1.0000 </r>
       <r>   -9.6696    1.0000 </r>
       <r>   -8.0856    1.0000 </r>
       <r>   -7.9924    1.0000 </r>
       <r>   -1.6546    1.0000 </r>
       <r>   -1.6249    1.0000 </r>
       <r>    1.9209    1.0000 </r>
       <r>    2.4308    1.0000 </r>
       <r>    6.3883    0.0000 </r>
       <r>    6.8470    0.0000 </r>
       <r>   12.3607    0.0000 </r>
       <r>   12.5821    0.0000 </r>
       <r>   15.8792    0.0000 </r>
       <r>   17.2439    0.0000 </r>
       <r>   18.0650    0.0000 </r>
       <r>   19.3535    0.0000 </r>
       <r>   24.7956    0.0000 </r>
       <r>   24.9952    0.0000 </r>
       <r>   25.1076    0.0000 </r>
       <r>   25.6136    0.0000 </r>
      </set>
      <set comment="kpoint 36">
       <r>  -14.4512    1.0000 </r>
       <r>  -14.2847    1.0000 </r>
       <r>   -3.1564    1.0000 </r>
       <r>   -2.1201    1.0000 </r>
       <r>    0.6375    1.0000 </r>
       <r>    0.6526    1.0000 </r>
       <r>    1.0872    1.0000 </r>
       <r>    1.0989    1.0000 </r>
       <r>   10.3433    0.0000 </r>
       <r>   13.1627    0.0000 </r>
       <r>   13.4648    0.0000 </r>
       <r>   13.5446    0.0000 </r>
       <r>   14.3649    0.0000 </r>
       <r>   14.3947    0.0000 </r>
       <r>   15.2515    0.0000 </r>
       <r>   15.4168    0.0000 </r>
       <r>   18.5903    0.0000 </r>
       <r>   18.7586    0.0000 </r>
       <r>   25.7317    0.0000 </r>
       <r>   28.2864    0.0000 </r>
      </set>
      <set comment="kpoint 37">
       <r>  -14.0278    1.0000 </r>
       <r>  -13.8657    1.0000 </r>
       <r>   -2.6427    1.0000 </r>
       <r>   -1.6247    1.0000 </r>
       <r>   -0.6028    1.0000 </r>
       <r>   -0.5739    1.0000 </r>
       <r>    0.3452    1.0000 </r>
       <r>    0.3650    1.0000 </r>
       <r>   10.8323    0.0000 </r>
       <r>   13.3748    0.0000 </r>
       <r>   13.6167    0.0000 </r>
       <r>   13.8221    0.0000 </r>
       <r>   14.0580    0.0000 </r>
       <r>   14.2266    0.0000 </r>
       <r>   15.5951    0.0000 </r>
       <r>   15.6510    0.0000 </r>
       <r>   19.4676    0.0000 </r>
       <r>   19.7384    0.0000 </r>
       <r>   25.5173    0.0000 </r>
       <r>   27.1230    0.0000 </r>
      </set>
      <set comment="kpoint 38">
       <r>  -13.3965    1.0000 </r>
       <r>  -13.2411    1.0000 </r>
       <r>   -2.1854    1.0000 </r>
       <r>   -2.1386    1.0000 </r>
       <r>   -1.8820    1.0000 </r>
       <r>   -0.8948    1.0000 </r>
       <r>   -0.4243    1.0000 </r>
       <r>   -0.3971    1.0000 </r>
       <r>   11.5237    0.0000 </r>
       <r>   12.3146    0.0000 </r>
       <r>   12.5394    0.0000 </r>
       <r>   13.4095    0.0000 </r>
       <r>   13.6561    0.0000 </r>
       <r>   14.4828    0.0000 </r>
       <r>   17.2585    0.0000 </r>
       <r>   17.3968    0.0000 </r>
       <r>   20.5324    0.0000 </r>
       <r>   20.9700    0.0000 </r>
       <r>   24.0465    0.0000 </r>
       <r>   25.1341    0.0000 </r>
      </set>
      <set comment="kpoint 39">
       <r>  -12.5630    1.0000 </r>
       <r>  -12.4161    1.0000 </r>
       <r>   -3.9102    1.0000 </r>
       <r>   -3.8458    1.0000 </r>
       <r>   -1.0939    1.0000 </r>
       <r>   -1.0627    1.0000 </r>
       <r>   -0.8955    1.0000 </r>
       <r>    0.0442    1.0000 </r>
       <r>   10.3675    0.0000 </r>
       <r>   10.7918    0.0000 </r>
       <r>   12.5257    0.0000 </r>
       <r>   13.2211    0.0000 </r>
       <r>   13.5119    0.0000 </r>
       <r>   15.2534    0.0000 </r>
       <r>   18.9556    0.0000 </r>
       <r>   19.2743    0.0000 </r>
       <r>   21.2843    0.0000 </r>
       <r>   21.6948    0.0000 </r>
       <r>   22.9755    0.0000 </r>
       <r>   23.9586    0.0000 </r>
      </set>
      <set comment="kpoint 40">
       <r>  -11.5366    1.0000 </r>
       <r>  -11.4004    1.0000 </r>
       <r>   -5.6410    1.0000 </r>
       <r>   -5.5606    1.0000 </r>
       <r>   -1.6025    1.0000 </r>
       <r>   -1.5690    1.0000 </r>
       <r>    0.2760    1.0000 </r>
       <r>    1.1333    1.0000 </r>
       <r>    8.4898    0.0000 </r>
       <r>    9.0053    0.0000 </r>
       <r>   12.9900    0.0000 </r>
       <r>   13.1460    0.0000 </r>
       <r>   13.9002    0.0000 </r>
       <r>   16.1531    0.0000 </r>
       <r>   19.3726    0.0000 </r>
       <r>   20.3284    0.0000 </r>
       <r>   21.8253    0.0000 </r>
       <r>   22.6115    0.0000 </r>
       <r>   24.0788    0.0000 </r>
       <r>   25.6021    0.0000 </r>
      </set>
      <set comment="kpoint 41">
       <r>  -10.3402    1.0000 </r>
       <r>  -10.2176    1.0000 </r>
       <r>   -7.2817    1.0000 </r>
       <r>   -7.1886    1.0000 </r>
       <r>   -1.9180    1.0000 </r>
       <r>   -1.8834    1.0000 </r>
       <r>    1.5058    1.0000 </r>
       <r>    2.1842    1.0000 </r>
       <r>    6.8873    0.0000 </r>
       <r>    7.4034    0.0000 </r>
       <r>   12.8526    0.0000 </r>
       <r>   13.0733    0.0000 </r>
       <r>   15.1781    0.0000 </r>
       <r>   16.9979    0.0000 </r>
       <r>   18.3783    0.0000 </r>
       <r>   19.5354    0.0000 </r>
       <r>   22.9608    0.0000 </r>
       <r>   24.1988    0.0000 </r>
       <r>   25.1014    0.0000 </r>
       <r>   26.1942    0.0000 </r>
      </set>
      <set comment="kpoint 42">
       <r>   -9.2769    1.0000 </r>
       <r>   -9.2139    1.0000 </r>
       <r>   -8.4444    1.0000 </r>
       <r>   -8.3970    1.0000 </r>
       <r>   -2.0248    1.0000 </r>
       <r>   -1.9899    1.0000 </r>
       <r>    2.2475    1.0000 </r>
       <r>    2.6300    1.0000 </r>
       <r>    6.2103    0.0000 </r>
       <r>    6.5722    0.0000 </r>
       <r>   12.8012    0.0000 </r>
       <r>   13.0332    0.0000 </r>
       <r>   16.4488    0.0000 </r>
       <r>   16.6977    0.0000 </r>
       <r>   18.0106    0.0000 </r>
       <r>   18.9803    0.0000 </r>
       <r>   23.2577    0.0000 </r>
       <r>   24.9609    0.0000 </r>
       <r>   25.1687    0.0000 </r>
       <r>   26.5904    0.0000 </r>
      </set>
      <set comment="kpoint 43">
       <r>  -13.5015    1.0000 </r>
       <r>  -13.3450    1.0000 </r>
       <r>   -2.0084    1.0000 </r>
       <r>   -1.6811    1.0000 </r>
       <r>   -1.6556    1.0000 </r>
       <r>   -1.0142    1.0000 </r>
       <r>   -0.6331    1.0000 </r>
       <r>   -0.6154    1.0000 </r>
       <r>   11.4432    0.0000 </r>
       <r>   12.6155    0.0000 </r>
       <r>   12.8397    0.0000 </r>
       <r>   13.9555    0.0000 </r>
       <r>   14.3442    0.0000 </r>
       <r>   14.5169    0.0000 </r>
       <r>   16.1057    0.0000 </r>
       <r>   16.1867    0.0000 </r>
       <r>   20.7657    0.0000 </r>
       <r>   20.9626    0.0000 </r>
       <r>   24.1540    0.0000 </r>
       <r>   24.8357    0.0000 </r>
      </set>
      <set comment="kpoint 44">
       <r>  -12.7709    1.0000 </r>
       <r>  -12.6219    1.0000 </r>
       <r>   -3.0774    1.0000 </r>
       <r>   -3.0331    1.0000 </r>
       <r>   -1.5534    1.0000 </r>
       <r>   -1.5231    1.0000 </r>
       <r>   -1.1359    1.0000 </r>
       <r>   -0.1814    1.0000 </r>
       <r>   11.0026    0.0000 </r>
       <r>   11.2936    0.0000 </r>
       <r>   12.2947    0.0000 </r>
       <r>   14.3313    0.0000 </r>
       <r>   14.6531    0.0000 </r>
       <r>   15.0477    0.0000 </r>
       <r>   17.0997    0.0000 </r>
       <r>   17.2754    0.0000 </r>
       <r>   21.2399    0.0000 </r>
       <r>   21.9546    0.0000 </r>
       <r>   22.7298    0.0000 </r>
       <r>   23.5693    0.0000 </r>
      </set>
      <set comment="kpoint 45">
       <r>  -11.8437    1.0000 </r>
       <r>  -11.7043    1.0000 </r>
       <r>   -4.6847    1.0000 </r>
       <r>   -4.6183    1.0000 </r>
       <r>   -2.2314    1.0000 </r>
       <r>   -2.1910    1.0000 </r>
       <r>   -0.0541    1.0000 </r>
       <r>    0.8387    1.0000 </r>
       <r>    9.2465    0.0000 </r>
       <r>    9.6386    0.0000 </r>
       <r>   13.3203    0.0000 </r>
       <r>   14.2824    0.0000 </r>
       <r>   14.6050    0.0000 </r>
       <r>   15.6873    0.0000 </r>
       <r>   18.3406    0.0000 </r>
       <r>   18.8986    0.0000 </r>
       <r>   20.2783    0.0000 </r>
       <r>   21.7281    0.0000 </r>
       <r>   24.4240    0.0000 </r>
       <r>   26.2419    0.0000 </r>
      </set>
      <set comment="kpoint 46">
       <r>  -10.7346    1.0000 </r>
       <r>  -10.6069    1.0000 </r>
       <r>   -6.3175    1.0000 </r>
       <r>   -6.2340    1.0000 </r>
       <r>   -2.6772    1.0000 </r>
       <r>   -2.6324    1.0000 </r>
       <r>    1.1713    1.0000 </r>
       <r>    1.9511    1.0000 </r>
       <r>    7.5443    0.0000 </r>
       <r>    8.0097    0.0000 </r>
       <r>   14.1088    0.0000 </r>
       <r>   14.2485    0.0000 </r>
       <r>   14.7451    0.0000 </r>
       <r>   16.3142    0.0000 </r>
       <r>   18.4287    0.0000 </r>
       <r>   19.2668    0.0000 </r>
       <r>   21.2317    0.0000 </r>
       <r>   22.7768    0.0000 </r>
       <r>   24.2548    0.0000 </r>
       <r>   26.7721    0.0000 </r>
      </set>
      <set comment="kpoint 47">
       <r>   -9.5004    1.0000 </r>
       <r>   -9.3933    1.0000 </r>
       <r>   -7.8225    1.0000 </r>
       <r>   -7.7335    1.0000 </r>
       <r>   -2.8999    1.0000 </r>
       <r>   -2.8533    1.0000 </r>
       <r>    2.3005    1.0000 </r>
       <r>    2.8105    1.0000 </r>
       <r>    6.3326    0.0000 </r>
       <r>    6.6979    0.0000 </r>
       <r>   14.0156    0.0000 </r>
       <r>   14.2777    0.0000 </r>
       <r>   15.7998    0.0000 </r>
       <r>   16.5740    0.0000 </r>
       <r>   17.8308    0.0000 </r>
       <r>   18.8765    0.0000 </r>
       <r>   21.7022    0.0000 </r>
       <r>   22.7390    0.0000 </r>
       <r>   24.5860    0.0000 </r>
       <r>   25.1936    0.0000 </r>
      </set>
      <set comment="kpoint 48">
       <r>  -11.9466    1.0000 </r>
       <r>  -11.8062    1.0000 </r>
       <r>   -4.0608    1.0000 </r>
       <r>   -4.0261    1.0000 </r>
       <r>   -2.7494    1.0000 </r>
       <r>   -2.7233    1.0000 </r>
       <r>   -0.1658    1.0000 </r>
       <r>    0.7381    1.0000 </r>
       <r>    9.5867    0.0000 </r>
       <r>    9.8737    0.0000 </r>
       <r>   13.1903    0.0000 </r>
       <r>   15.1793    0.0000 </r>
       <r>   15.8386    0.0000 </r>
       <r>   15.8921    0.0000 </r>
       <r>   17.0676    0.0000 </r>
       <r>   17.4247    0.0000 </r>
       <r>   19.8605    0.0000 </r>
       <r>   21.6501    0.0000 </r>
       <r>   24.2897    0.0000 </r>
       <r>   26.0331    0.0000 </r>
      </set>
      <set comment="kpoint 49">
       <r>  -10.9355    1.0000 </r>
       <r>  -10.8056    1.0000 </r>
       <r>   -5.3630    1.0000 </r>
       <r>   -5.3026    1.0000 </r>
       <r>   -3.5779    1.0000 </r>
       <r>   -3.5334    1.0000 </r>
       <r>    0.9903    1.0000 </r>
       <r>    1.8145    1.0000 </r>
       <r>    8.0576    0.0000 </r>
       <r>    8.3994    0.0000 </r>
       <r>   14.1954    0.0000 </r>
       <r>   15.4573    0.0000 </r>
       <r>   16.1610    0.0000 </r>
       <r>   16.2155    0.0000 </r>
       <r>   17.6910    0.0000 </r>
       <r>   18.4018    0.0000 </r>
       <r>   19.1407    0.0000 </r>
       <r>   21.1593    0.0000 </r>
       <r>   24.6500    0.0000 </r>
       <r>   26.4017    0.0000 </r>
      </set>
      <set comment="kpoint 50">
       <r>   -9.7647    1.0000 </r>
       <r>   -9.6487    1.0000 </r>
       <r>   -6.8272    1.0000 </r>
       <r>   -6.7451    1.0000 </r>
       <r>   -3.9993    1.0000 </r>
       <r>   -3.9436    1.0000 </r>
       <r>    2.2275    1.0000 </r>
       <r>    2.8958    1.0000 </r>
       <r>    6.6306    0.0000 </r>
       <r>    6.9958    0.0000 </r>
       <r>   15.0477    0.0000 </r>
       <r>   15.4020    0.0000 </r>
       <r>   16.1026    0.0000 </r>
       <r>   16.2380    0.0000 </r>
       <r>   17.6678    0.0000 </r>
       <r>   18.7975    0.0000 </r>
       <r>   20.3052    0.0000 </r>
       <r>   21.5097    0.0000 </r>
       <r>   23.9107    0.0000 </r>
       <r>   24.9675    0.0000 </r>
      </set>
      <set comment="kpoint 51">
       <r>   -8.7425    1.0000 </r>
       <r>   -8.6831    1.0000 </r>
       <r>   -7.9127    1.0000 </r>
       <r>   -7.8726    1.0000 </r>
       <r>   -4.1298    1.0000 </r>
       <r>   -4.0713    1.0000 </r>
       <r>    3.0232    1.0000 </r>
       <r>    3.3977    1.0000 </r>
       <r>    6.0191    0.0000 </r>
       <r>    6.1289    0.0000 </r>
       <r>   15.3371    0.0000 </r>
       <r>   15.3428    0.0000 </r>
       <r>   16.1229    0.0000 </r>
       <r>   16.2357    0.0000 </r>
       <r>   17.7290    0.0000 </r>
       <r>   18.6612    0.0000 </r>
       <r>   20.9912    0.0000 </r>
       <r>   22.0164    0.0000 </r>
       <r>   24.3548    0.0000 </r>
       <r>   24.6246    0.0000 </r>
      </set>
      <set comment="kpoint 52">
       <r>   -9.8588    1.0000 </r>
       <r>   -9.7409    1.0000 </r>
       <r>   -6.1030    1.0000 </r>
       <r>   -6.0587    1.0000 </r>
       <r>   -4.7384    1.0000 </r>
       <r>   -4.7056    1.0000 </r>
       <r>    2.1882    1.0000 </r>
       <r>    2.9109    1.0000 </r>
       <r>    6.8031    0.0000 </r>
       <r>    7.1355    0.0000 </r>
       <r>   14.8260    0.0000 </r>
       <r>   15.3687    0.0000 </r>
       <r>   17.1305    0.0000 </r>
       <r>   17.5489    0.0000 </r>
       <r>   17.7276    0.0000 </r>
       <r>   18.3000    0.0000 </r>
       <r>   18.7662    0.0000 </r>
       <r>   20.6947    0.0000 </r>
       <r>   23.9349    0.0000 </r>
       <r>   24.7744    0.0000 </r>
      </set>
      <set comment="kpoint 53">
       <r>   -8.6794    1.0000 </r>
       <r>   -8.5821    1.0000 </r>
       <r>   -7.1898    1.0000 </r>
       <r>   -7.1233    1.0000 </r>
       <r>   -5.2897    1.0000 </r>
       <r>   -5.2358    1.0000 </r>
       <r>    3.3828    1.0000 </r>
       <r>    3.9017    1.0000 </r>
       <r>    5.6834    0.0000 </r>
       <r>    5.9704    0.0000 </r>
       <r>   14.9265    0.0000 </r>
       <r>   15.0785    0.0000 </r>
       <r>   17.2688    0.0000 </r>
       <r>   17.9253    0.0000 </r>
       <r>   18.0820    0.0000 </r>
       <r>   18.6602    0.0000 </r>
       <r>   20.0768    0.0000 </r>
       <r>   21.0477    0.0000 </r>
       <r>   23.6473    0.0000 </r>
       <r>   24.0442    0.0000 </r>
      </set>
      <set comment="kpoint 54">
       <r>   -7.7074    1.0000 </r>
       <r>   -7.6481    1.0000 </r>
       <r>   -7.6481    1.0000 </r>
       <r>   -7.6020    1.0000 </r>
       <r>   -5.9527    1.0000 </r>
       <r>   -5.9527    1.0000 </r>
       <r>    4.3966    1.0000 </r>
       <r>    4.7584    0.4434 </r>
       <r>    4.7584    0.4434 </r>
       <r>    5.1192    0.0000 </r>
       <r>   14.7775    0.0000 </r>
       <r>   14.7775    0.0000 </r>
       <r>   17.6967    0.0000 </r>
       <r>   18.5489    0.0000 </r>
       <r>   18.5490    0.0000 </r>
       <r>   19.4035    0.0000 </r>
       <r>   20.2534    0.0000 </r>
       <r>   20.5093    0.0000 </r>
       <r>   23.2905    0.0000 </r>
       <r>   23.7682    0.0000 </r>
      </set>
     </set>
    </set>
   </array>
  </eigenvalues>
  <separator name="orbital magnetization" >
   <v name="MAGDIPOLOUT">      0.00000000      0.00000000      0.00000000</v>
  </separator>
  <dos>
   <i name="efermi">      4.74828894 </i>
   <total>
    <array>
     <dimension dim="1">gridpoints</dimension>
     <dimension dim="2">spin</dimension>
     <field>energy</field>
     <field>total</field>
     <field>integrated</field>
     <set>
      <set comment="spin 1">
       <r>   -17.0265     0.0000     0.0000 </r>
       <r>   -16.8669     0.0000     0.0000 </r>
       <r>   -16.7074     0.0000     0.0000 </r>
       <r>   -16.5478     0.0000     0.0000 </r>
       <r>   -16.3882     0.0000     0.0000 </r>
       <r>   -16.2286     0.0000     0.0000 </r>
       <r>   -16.0690     0.0000     0.0000 </r>
       <r>   -15.9095     0.0000     0.0000 </r>
       <r>   -15.7499     0.0000     0.0000 </r>
       <r>   -15.5903     0.0000     0.0000 </r>
       <r>   -15.4307     0.0000     0.0000 </r>
       <r>   -15.2711     0.0000     0.0000 </r>
       <r>   -15.1116     0.0000     0.0000 </r>
       <r>   -14.9520     0.0018     0.0003 </r>
       <r>   -14.7924     0.0620     0.0102 </r>
       <r>   -14.6328     0.2728     0.0537 </r>
       <r>   -14.4732     0.4662     0.1281 </r>
       <r>   -14.3137     0.6363     0.2296 </r>
       <r>   -14.1541     0.5397     0.3158 </r>
       <r>   -13.9945     0.6657     0.4220 </r>
       <r>   -13.8349     0.6644     0.5280 </r>
       <r>   -13.6753     0.5643     0.6181 </r>
       <r>   -13.5158     0.4836     0.6953 </r>
       <r>   -13.3562     0.7564     0.8160 </r>
       <r>   -13.1966     0.7581     0.9369 </r>
       <r>   -13.0370     0.5326     1.0219 </r>
       <r>   -12.8774     0.3667     1.0804 </r>
       <r>   -12.7179     0.6527     1.1846 </r>
       <r>   -12.5583     0.9321     1.3333 </r>
       <r>   -12.3987     0.7475     1.4526 </r>
       <r>   -12.2391     0.4119     1.5183 </r>
       <r>   -12.0795     0.3147     1.5686 </r>
       <r>   -11.9200     0.6562     1.6733 </r>
       <r>   -11.7604     0.9058     1.8178 </r>
       <r>   -11.6008     0.8365     1.9513 </r>
       <r>   -11.4412     0.6788     2.0596 </r>
       <r>   -11.2816     0.4970     2.1389 </r>
       <r>   -11.1221     0.1473     2.1624 </r>
       <r>   -10.9625     0.5875     2.2562 </r>
       <r>   -10.8029     1.0551     2.4246 </r>
       <r>   -10.6433     1.0388     2.5903 </r>
       <r>   -10.4837     0.5597     2.6797 </r>
       <r>   -10.3242     0.5145     2.7618 </r>
       <r>   -10.1646     0.6237     2.8613 </r>
       <r>   -10.0050     0.2421     2.8999 </r>
       <r>    -9.8454     0.4532     2.9723 </r>
       <r>    -9.6858     1.2759     3.1759 </r>
       <r>    -9.5263     1.1691     3.3624 </r>
       <r>    -9.3667     0.8338     3.4955 </r>
       <r>    -9.2071     0.7120     3.6091 </r>
       <r>    -9.0475     0.2168     3.6437 </r>
       <r>    -8.8879     0.0194     3.6468 </r>
       <r>    -8.7284     0.5033     3.7271 </r>
       <r>    -8.5688     1.1061     3.9036 </r>
       <r>    -8.4092     0.7312     4.0203 </r>
       <r>    -8.2496     0.3147     4.0705 </r>
       <r>    -8.0900     0.2122     4.1044 </r>
       <r>    -7.9304     0.6335     4.2055 </r>
       <r>    -7.7709     1.1962     4.3964 </r>
       <r>    -7.6113     0.8849     4.5376 </r>
       <r>    -7.4517     0.2034     4.5700 </r>
       <r>    -7.2921     0.4510     4.6420 </r>
       <r>    -7.1325     1.4853     4.8790 </r>
       <r>    -6.9730     0.7324     4.9959 </r>
       <r>    -6.8134     0.5156     5.0782 </r>
       <r>    -6.6538     0.7438     5.1969 </r>
       <r>    -6.4942     0.4073     5.2619 </r>
       <r>    -6.3346     0.6634     5.3678 </r>
       <r>    -6.1751     0.8930     5.5103 </r>
       <r>    -6.0155     0.6911     5.6206 </r>
       <r>    -5.8559     0.2978     5.6681 </r>
       <r>    -5.6963     0.2203     5.7032 </r>
       <r>    -5.5367     0.8109     5.8326 </r>
       <r>    -5.3772     0.8184     5.9632 </r>
       <r>    -5.2176     1.6792     6.2312 </r>
       <r>    -5.0580     0.4938     6.3100 </r>
       <r>    -4.8984     0.0785     6.3225 </r>
       <r>    -4.7388     0.8635     6.4603 </r>
       <r>    -4.5793     1.4431     6.6906 </r>
       <r>    -4.4197     0.2922     6.7372 </r>
       <r>    -4.2601     0.0213     6.7406 </r>
       <r>    -4.1005     0.5453     6.8277 </r>
       <r>    -3.9409     1.9026     7.1313 </r>
       <r>    -3.7814     1.4831     7.3679 </r>
       <r>    -3.6218     0.5091     7.4492 </r>
       <r>    -3.4622     1.1302     7.6295 </r>
       <r>    -3.3026     0.3637     7.6876 </r>
       <r>    -3.1430     0.4122     7.7534 </r>
       <r>    -2.9835     1.8436     8.0476 </r>
       <r>    -2.8239     1.5764     8.2991 </r>
       <r>    -2.6643     1.6237     8.5582 </r>
       <r>    -2.5047     1.1353     8.7394 </r>
       <r>    -2.3451     0.5761     8.8313 </r>
       <r>    -2.1856     1.6223     9.0902 </r>
       <r>    -2.0260     1.9362     9.3992 </r>
       <r>    -1.8664     1.9271     9.7067 </r>
       <r>    -1.7068     1.2029     9.8987 </r>
       <r>    -1.5472     2.9883    10.3756 </r>
       <r>    -1.3877     2.2836    10.7400 </r>
       <r>    -1.2281     1.1115    10.9174 </r>
       <r>    -1.0685     1.4886    11.1549 </r>
       <r>    -0.9089     1.8155    11.4446 </r>
       <r>    -0.7493     0.7834    11.5697 </r>
       <r>    -0.5898     1.2658    11.7716 </r>
       <r>    -0.4302     2.2612    12.1325 </r>
       <r>    -0.2706     1.5705    12.3831 </r>
       <r>    -0.1110     0.8107    12.5125 </r>
       <r>     0.0486     0.8437    12.6471 </r>
       <r>     0.2081     0.7690    12.7698 </r>
       <r>     0.3677     2.0701    13.1002 </r>
       <r>     0.5273     1.1277    13.2801 </r>
       <r>     0.6869     0.9460    13.4311 </r>
       <r>     0.8465     0.9637    13.5849 </r>
       <r>     1.0061     1.1737    13.7722 </r>
       <r>     1.1656     1.5443    14.0186 </r>
       <r>     1.3252     0.9820    14.1753 </r>
       <r>     1.4848     0.9139    14.3212 </r>
       <r>     1.6444     1.1307    14.5016 </r>
       <r>     1.8040     0.6583    14.6067 </r>
       <r>     1.9635     1.0384    14.7724 </r>
       <r>     2.1231     0.8050    14.9008 </r>
       <r>     2.2827     1.2974    15.1079 </r>
       <r>     2.4423     0.8964    15.2509 </r>
       <r>     2.6019     0.4293    15.3194 </r>
       <r>     2.7614     0.4723    15.3948 </r>
       <r>     2.9210     0.8653    15.5329 </r>
       <r>     3.0806     0.6872    15.6425 </r>
       <r>     3.2402     0.3740    15.7022 </r>
       <r>     3.3998     0.5705    15.7932 </r>
       <r>     3.5593     0.3770    15.8534 </r>
       <r>     3.7189     0.0295    15.8581 </r>
       <r>     3.8785     0.1636    15.8842 </r>
       <r>     4.0381     0.3120    15.9340 </r>
       <r>     4.1977     0.2007    15.9660 </r>
       <r>     4.3572     0.0485    15.9738 </r>
       <r>     4.5168     0.0497    15.9817 </r>
       <r>     4.6764     0.0388    15.9879 </r>
       <r>     4.8360     0.1623    16.0138 </r>
       <r>     4.9956     0.0278    16.0182 </r>
       <r>     5.1551     0.0487    16.0260 </r>
       <r>     5.3147     0.0225    16.0296 </r>
       <r>     5.4743     0.0206    16.0329 </r>
       <r>     5.6339     0.2852    16.0784 </r>
       <r>     5.7935     0.3758    16.1384 </r>
       <r>     5.9530     0.2459    16.1776 </r>
       <r>     6.1126     0.6411    16.2799 </r>
       <r>     6.2722     0.8807    16.4205 </r>
       <r>     6.4318     0.8684    16.5590 </r>
       <r>     6.5914     0.5921    16.6535 </r>
       <r>     6.7509     1.0004    16.8132 </r>
       <r>     6.9105     0.9568    16.9659 </r>
       <r>     7.0701     0.8119    17.0954 </r>
       <r>     7.2297     0.4725    17.1708 </r>
       <r>     7.3893     0.5803    17.2635 </r>
       <r>     7.5488     0.6754    17.3712 </r>
       <r>     7.7084     0.4506    17.4431 </r>
       <r>     7.8680     0.2854    17.4887 </r>
       <r>     8.0276     0.5527    17.5769 </r>
       <r>     8.1872     0.5917    17.6713 </r>
       <r>     8.3467     0.5745    17.7630 </r>
       <r>     8.5063     0.7260    17.8788 </r>
       <r>     8.6659     0.4679    17.9535 </r>
       <r>     8.8255     0.1199    17.9726 </r>
       <r>     8.9851     0.2470    18.0121 </r>
       <r>     9.1446     0.5871    18.1057 </r>
       <r>     9.3042     0.6134    18.2036 </r>
       <r>     9.4638     0.4632    18.2776 </r>
       <r>     9.6234     0.6440    18.3803 </r>
       <r>     9.7830     0.4560    18.4531 </r>
       <r>     9.9426     0.5199    18.5361 </r>
       <r>    10.1021     0.4363    18.6057 </r>
       <r>    10.2617     0.5106    18.6872 </r>
       <r>    10.4213     0.8370    18.8207 </r>
       <r>    10.5809     0.3083    18.8699 </r>
       <r>    10.7405     0.2357    18.9076 </r>
       <r>    10.9000     0.8553    19.0440 </r>
       <r>    11.0596     0.7934    19.1707 </r>
       <r>    11.2192     0.5483    19.2582 </r>
       <r>    11.3788     0.7970    19.3854 </r>
       <r>    11.5384     0.7801    19.5098 </r>
       <r>    11.6979     0.2529    19.5502 </r>
       <r>    11.8575     0.2347    19.5877 </r>
       <r>    12.0171     0.2309    19.6245 </r>
       <r>    12.1767     0.4780    19.7008 </r>
       <r>    12.3363     1.0608    19.8701 </r>
       <r>    12.4958     1.0745    20.0416 </r>
       <r>    12.6554     1.7152    20.3153 </r>
       <r>    12.8150     1.5038    20.5552 </r>
       <r>    12.9746     1.5003    20.7947 </r>
       <r>    13.1342     2.2745    21.1576 </r>
       <r>    13.2937     3.1383    21.6584 </r>
       <r>    13.4533     3.0267    22.1414 </r>
       <r>    13.6129     2.3454    22.5157 </r>
       <r>    13.7725     1.9330    22.8242 </r>
       <r>    13.9321     1.2151    23.0181 </r>
       <r>    14.0916     1.5308    23.2624 </r>
       <r>    14.2512     2.3957    23.6447 </r>
       <r>    14.4108     2.6704    24.0708 </r>
       <r>    14.5704     1.5644    24.3205 </r>
       <r>    14.7300     1.5172    24.5626 </r>
       <r>    14.8895     1.6263    24.8221 </r>
       <r>    15.0491     1.7567    25.1025 </r>
       <r>    15.2087     1.8831    25.4030 </r>
       <r>    15.3683     1.6304    25.6631 </r>
       <r>    15.5279     1.6877    25.9325 </r>
       <r>    15.6874     1.8685    26.2306 </r>
       <r>    15.8470     1.7019    26.5022 </r>
       <r>    16.0066     1.4512    26.7338 </r>
       <r>    16.1662     2.2930    27.0997 </r>
       <r>    16.3258     2.7056    27.5315 </r>
       <r>    16.4853     0.9713    27.6865 </r>
       <r>    16.6449     1.2250    27.8820 </r>
       <r>    16.8045     1.5889    28.1355 </r>
       <r>    16.9641     1.2144    28.3293 </r>
       <r>    17.1237     1.6229    28.5883 </r>
       <r>    17.2832     1.9340    28.8969 </r>
       <r>    17.4428     1.6453    29.1595 </r>
       <r>    17.6024     1.4663    29.3935 </r>
       <r>    17.7620     1.4013    29.6171 </r>
       <r>    17.9216     0.8900    29.7591 </r>
       <r>    18.0811     1.4230    29.9862 </r>
       <r>    18.2407     1.2967    30.1931 </r>
       <r>    18.4003     1.5634    30.4426 </r>
       <r>    18.5599     1.5437    30.6890 </r>
       <r>    18.7195     1.4075    30.9136 </r>
       <r>    18.8791     2.1514    31.2569 </r>
       <r>    19.0386     2.1488    31.5998 </r>
       <r>    19.1982     1.0296    31.7641 </r>
       <r>    19.3578     1.5122    32.0054 </r>
       <r>    19.5174     1.4550    32.2376 </r>
       <r>    19.6770     0.9681    32.3921 </r>
       <r>    19.8365     0.7512    32.5120 </r>
       <r>    19.9961     0.6040    32.6084 </r>
       <r>    20.1557     0.8563    32.7450 </r>
       <r>    20.3153     1.1362    32.9263 </r>
       <r>    20.4749     1.0903    33.1003 </r>
       <r>    20.6344     0.7577    33.2213 </r>
       <r>    20.7940     0.4926    33.2999 </r>
       <r>    20.9536     0.9073    33.4446 </r>
       <r>    21.1132     1.3624    33.6621 </r>
       <r>    21.2728     1.6350    33.9230 </r>
       <r>    21.4323     1.2478    34.1221 </r>
       <r>    21.5919     1.1623    34.3076 </r>
       <r>    21.7515     1.5982    34.5626 </r>
       <r>    21.9111     0.9626    34.7162 </r>
       <r>    22.0707     0.7458    34.8352 </r>
       <r>    22.2302     0.3794    34.8958 </r>
       <r>    22.3898     0.1087    34.9131 </r>
       <r>    22.5494     0.1293    34.9338 </r>
       <r>    22.7090     0.8802    35.0742 </r>
       <r>    22.8686     1.0618    35.2437 </r>
       <r>    23.0281     1.2392    35.4414 </r>
       <r>    23.1877     0.8773    35.5814 </r>
       <r>    23.3473     0.7523    35.7015 </r>
       <r>    23.5069     0.7040    35.8138 </r>
       <r>    23.6665     1.3171    36.0240 </r>
       <r>    23.8260     1.6098    36.2809 </r>
       <r>    23.9856     2.2159    36.6345 </r>
       <r>    24.1452     2.2486    36.9934 </r>
       <r>    24.3048     1.7963    37.2800 </r>
       <r>    24.4644     1.3685    37.4984 </r>
       <r>    24.6239     1.0365    37.6638 </r>
       <r>    24.7835     1.2652    37.8657 </r>
       <r>    24.9431     1.6339    38.1264 </r>
       <r>    25.1027     1.6708    38.3931 </r>
       <r>    25.2623     1.7471    38.6719 </r>
       <r>    25.4218     0.7200    38.7868 </r>
       <r>    25.5814     0.8205    38.9177 </r>
       <r>    25.7410     1.2360    39.1149 </r>
       <r>    25.9006     0.6251    39.2147 </r>
       <r>    26.0602     0.3090    39.2640 </r>
       <r>    26.2197     0.8719    39.4032 </r>
       <r>    26.3793     0.7664    39.5255 </r>
       <r>    26.5389     0.5615    39.6151 </r>
       <r>    26.6985     0.2915    39.6616 </r>
       <r>    26.8581     0.3440    39.7165 </r>
       <r>    27.0176     0.0802    39.7293 </r>
       <r>    27.1772     0.3185    39.7801 </r>
       <r>    27.3368     0.2075    39.8132 </r>
       <r>    27.4964     0.1575    39.8384 </r>
       <r>    27.6560     0.0848    39.8519 </r>
       <r>    27.8155     0.1977    39.8834 </r>
       <r>    27.9751     0.0608    39.8931 </r>
       <r>    28.1347     0.0050    39.8939 </r>
       <r>    28.2943     0.1653    39.9203 </r>
       <r>    28.4539     0.3250    39.9722 </r>
       <r>    28.6135     0.0852    39.9858 </r>
       <r>    28.7730     0.0807    39.9987 </r>
       <r>    28.9326     0.0084    40.0000 </r>
       <r>    29.0922     0.0000    40.0000 </r>
       <r>    29.2518     0.0000    40.0000 </r>
       <r>    29.4114     0.0000    40.0000 </r>
       <r>    29.5709     0.0000    40.0000 </r>
       <r>    29.7305     0.0000    40.0000 </r>
       <r>    29.8901     0.0000    40.0000 </r>
       <r>    30.0497     0.0000    40.0000 </r>
       <r>    30.2093     0.0000    40.0000 </r>
       <r>    30.3688     0.0000    40.0000 </r>
       <r>    30.5284     0.0000    40.0000 </r>
       <r>    30.6880     0.0000    40.0000 </r>
       <r>    30.8476     0.0000    40.0000 </r>
      </set>
     </set>
    </array>
   </total>
  </dos>
 </calculation>
 <structure name="finalpos" >
  <crystal>
   <varray name="basis" >
    <v>       2.44754191       0.00000000       0.00000000 </v>
    <v>      -1.22377096       2.11963347       0.00000000 </v>
    <v>       0.00000000       0.00000000       6.65079193 </v>
   </varray>
   <i name="volume">     34.50358869 </i>
   <varray name="rec_basis" >
    <v>       0.40857319       0.23588984       0.00000000 </v>
    <v>       0.00000000       0.47177968       0.00000000 </v>
    <v>       0.00000000       0.00000000       0.15035803 </v>
   </varray>
  </crystal>
  <varray name="positions" >
   <v>       0.00000000       0.00000000       0.00000000 </v>
   <v>       0.33333333       0.66666667       0.00000000 </v>
   <v>       0.33333333       0.66666667       0.50000000 </v>
   <v>       0.66666667       0.33333333       0.50000000 </v>
  </varray>
 </structure>
</modeling>
