 
             +---------------------------------------------------+
             |                                                   |
             |                   WANNIER90                       |
             |                                                   |
             +---------------------------------------------------+
             |                                                   |
             |        Welcome to the Maximally-Localized         |
             |        Generalized Wannier Functions code         |
             |            http://www.wannier.org                 |
             |                                                   |
             |                                                   |
             |  Wannier90 Developer Group:                       |
             |    Giovanni Pizzi    (EPFL)                       |
             |    Valerio Vitale    (Cambridge)                  |
             |    David Vanderbilt  (Rutgers University)         |
             |    Nicola Marzari    (EPFL)                       |
             |    Ivo Souza         (Universidad del Pais Vasco) |
             |    Arash A. Mostofi  (Imperial College London)    |
             |    Jonathan R. Yates (University of Oxford)       |
             |                                                   |
             |  For the full list of Wannier90 3.x authors,      |
             |  please check the code documentation and the      |
             |  README on the GitHub page of the code            |
             |                                                   |
             |                                                   |
             |  Please cite                                      |
             |                                                   |
             |  [ref] "Wannier90 as a community code:            |
             |        new features and applications",            |
             |        G. Pizzi et al., J. Phys. Cond. Matt. 32,  |
             |        165902 (2020).                             |
             |        http://doi.org/10.1088/1361-648X/ab51ff    |
             |                                                   |
             |  in any publications arising from the use of      |
             |  this code. For the method please cite            |
             |                                                   |
             |  [ref] "Maximally Localized Generalised Wannier   |
             |         Functions for Composite Energy Bands"     |
             |         N. Marzari and D. Vanderbilt              |
             |         Phys. Rev. B 56 12847 (1997)              |
             |                                                   |
             |  [ref] "Maximally Localized Wannier Functions     |
             |         for Entangled Energy Bands"               |
             |         I. Souza, N. Marzari and D. Vanderbilt    |
             |         Phys. Rev. B 65 035109 (2001)             |
             |                                                   |
             |                                                   |
             | Copyright (c) 1996-2020                           |
             |        The Wannier90 Developer Group and          |
             |        individual contributors                    |
             |                                                   |
             |      Release: 3.1.0        5th March    2020      |
             |                                                   |
             | This program is free software; you can            |
             | redistribute it and/or modify it under the terms  |
             | of the GNU General Public License as published by |
             | the Free Software Foundation; either version 2 of |
             | the License, or (at your option) any later version|
             |                                                   |
             | This program is distributed in the hope that it   |
             | will be useful, but WITHOUT ANY WARRANTY; without |
             | even the implied warranty of MERCHANTABILITY or   |
             | FITNESS FOR A PARTICULAR PURPOSE. See the GNU     |
             | General Public License for more details.          |
             |                                                   |
             | You should have received a copy of the GNU General|
             | Public License along with this program; if not,   |
             | write to the Free Software Foundation, Inc.,      |
             | 675 Mass Ave, Cambridge, MA 02139, USA.           |
             |                                                   |
             +---------------------------------------------------+
             |    Execution started on  8Nov2021 at 10:38:13     |
             +---------------------------------------------------+
 
 ******************************************************************************
 * -> Using CODATA 2006 constant values                                       *
 *    (http://physics.nist.gov/cuu/Constants/index.html)                      *
 * -> Using Bohr value from CODATA                                            *
 ******************************************************************************
 

 Running in serial (with parallel executable)
 
                                    ------
                                    SYSTEM
                                    ------
 
                              Lattice Vectors (Ang)
                    a_1     2.447542   0.000000   0.000000
                    a_2    -1.223771   2.119633   0.000000
                    a_3     0.000000   0.000000   6.650792
 
                   Unit Cell Volume:      34.50359  (Ang^3)
 
                        Reciprocal-Space Vectors (Ang^-1)
                    b_1     2.567141   1.482140   0.000000
                    b_2     0.000000   2.964279   0.000000
                    b_3     0.000000   0.000000   0.944727
  
 *----------------------------------------------------------------------------*
 |   Site       Fractional Coordinate          Cartesian Coordinate (Ang)     |
 +----------------------------------------------------------------------------+
 | C    1   0.00000   0.00000   0.00000   |    0.00000   0.00000   0.00000    |
 | C    2   0.33333   0.66667   0.00000   |    0.00000   1.41309   0.00000    |
 | C    3   0.33333   0.66667   0.50000   |    0.00000   1.41309   3.32540    |
 | C    4   0.66667   0.33333   0.50000   |    1.22377   0.70654   3.32540    |
 *----------------------------------------------------------------------------*
                                ------------
                                K-POINT GRID
                                ------------
  
             Grid size = 15 x 15 x  3      Total points =  675
  
  
 *---------------------------------- MAIN ------------------------------------*
 |  Number of Wannier Functions               :                 4             |
 |  Number of Objective Wannier Functions     :                 4             |
 |  Number of input Bloch states              :                18             |
 |  Output verbosity (1=low, 5=high)          :                 1             |
 |  Timing Level (1=low, 5=high)              :                 1             |
 |  Optimisation (0=memory, 3=speed)          :                 3             |
 |  Length Unit                               :               Ang             |
 |  Post-processing setup (write *.nnkp)      :                 F             |
 |  Using Gamma-only branch of algorithms     :                 F             |
 *----------------------------------------------------------------------------*
 *------------------------------- WANNIERISE ---------------------------------*
 |  Total number of iterations                :               100             |
 |  Number of CG steps before reset           :                 5             |
 |  Trial step length for line search         :             2.000             |
 |  Convergence tolerence                     :         0.100E-09             |
 |  Convergence window                        :                -1             |
 |  Iterations between writing output         :                 1             |
 |  Iterations between backing up to disk     :               100             |
 |  Write r^2_nm to file                      :                 F             |
 |  Write xyz WF centres to file              :                 F             |
 |  Write on-site energies <0n|H|0n> to file  :                 F             |
 |  Use guiding centre to control phases      :                 T             |
 |  Use phases for initial projections        :                 F             |
 |  Iterations before starting guiding centres:                 0             |
 |  Iterations between using guiding centres  :                 1             |
 *----------------------------------------------------------------------------*
 *------------------------------- DISENTANGLE --------------------------------*
 |  Using band disentanglement                :                 T             |
 |  Total number of iterations                :             10000             |
 |  Mixing ratio                              :             0.500             |
 |  Convergence tolerence                     :         1.000E-10             |
 |  Convergence window                        :                 3             |
 *----------------------------------------------------------------------------*
 *-------------------------------- PLOTTING ----------------------------------*
 |  Plotting interpolated bandstructure       :                 T             |
 |   Number of K-path sections                :                 7             |
 |   Divisions along first K-path section     :               100             |
 |   Output format                            :           gnuplot             |
 |   Output mode                              :               s-k             |
 *----------------------------------------------------------------------------*
 |   K-space path sections:                                                   |
 |    From: G       0.000  0.000  0.000     To: K       0.333  0.333  0.000   |
 |    From: K       0.333  0.333  0.000     To: M       0.000  0.500  0.000   |
 |    From: M       0.000  0.500  0.000     To: G       0.000  0.000  0.000   |
 |    From: G       0.000  0.000  0.000     To: A       0.000  0.000  0.500   |
 |    From: A       0.000  0.000  0.500     To: H       0.333  0.333  0.500   |
 |    From: H       0.333  0.333  0.500     To: L       0.000  0.500  0.500   |
 |    From: L       0.000  0.500  0.500     To: A       0.000  0.000  0.500   |
 *----------------------------------------------------------------------------*
 |  Plotting Hamiltonian in WF basis          :                 T             |
 *----------------------------------------------------------------------------*
 Time to read parameters        0.071 (sec)

 *---------------------------------- K-MESH ----------------------------------*
 +----------------------------------------------------------------------------+
 |                    Distance to Nearest-Neighbour Shells                    |
 |                    ------------------------------------                    |
 |          Shell             Distance (Ang^-1)          Multiplicity         |
 |          -----             -----------------          ------------         |
 |             1                   0.197619                      6            |
 |             2                   0.314909                      2            |
 |             3                   0.342285                      6            |
 |             4                   0.371781                     12            |
 |             5                   0.395237                      6            |
 |             6                   0.465110                     12            |
 |             7                   0.505352                     12            |
 |             8                   0.522850                     12            |
 |             9                   0.592856                      6            |
 |            10                   0.610360                     24            |
 |            11                   0.629818                      2            |
 |            12                   0.660094                     12            |
 |            13                   0.671302                     12            |
 |            14                   0.684571                      6            |
 |            15                   0.712524                     12            |
 |            16                   0.716820                     12            |
 |            17                   0.743561                     12            |
 |            18                   0.753528                     12            |
 |            19                   0.779011                     24            |
 |            20                   0.790474                      6            |
 |            21                   0.818561                     24            |
 |            22                   0.850892                     12            |
 |            23                   0.861400                     12            |
 |            24                   0.864956                     12            |
 |            25                   0.905602                     12            |
 |            26                   0.917157                     24            |
 |            27                   0.930220                     12            |
 |            28                   0.944727                      2            |
 |            29                   0.950979                     24            |
 |            30                   0.958793                     24            |
 |            31                   0.965175                     12            |
 |            32                   0.988093                      6            |
 |            33                   1.004823                     12            |
 |            34                   1.010703                     12            |
 |            35                   1.024071                     12            |
 |            36                   1.026856                      6            |
 +----------------------------------------------------------------------------+
 | The b-vectors are chosen automatically                                     |
 | The following shells are used:   1,  2                                     |
 +----------------------------------------------------------------------------+
 |                        Shell   # Nearest-Neighbours                        |
 |                        -----   --------------------                        |
 |                          1               6                                 |
 |                          2               2                                 |
 +----------------------------------------------------------------------------+
 | Completeness relation is fully satisfied [Eq. (B1), PRB 56, 12847 (1997)]  |
 +----------------------------------------------------------------------------+
 |                  b_k Vectors (Ang^-1) and Weights (Ang^2)                  |
 |                  ----------------------------------------                  |
 |            No.         b_k(x)      b_k(y)      b_k(z)        w_b           |
 |            ---        --------------------------------     --------        |
 |             1         0.171143    0.098809    0.000000     8.535384        |
 |             2         0.000000   -0.197619    0.000000     8.535384        |
 |             3        -0.171143    0.098809    0.000000     8.535384        |
 |             4        -0.171143   -0.098809    0.000000     8.535384        |
 |             5         0.000000    0.197619    0.000000     8.535384        |
 |             6         0.171143   -0.098809    0.000000     8.535384        |
 |             7         0.000000    0.000000    0.314909     5.041961        |
 |             8         0.000000    0.000000   -0.314909     5.041961        |
 +----------------------------------------------------------------------------+
 |                           b_k Directions (Ang^-1)                          |
 |                           -----------------------                          |
 |            No.           x           y           z                         |
 |            ---        --------------------------------                     |
 |             1         0.171143    0.098809    0.000000                     |
 |             2         0.000000   -0.197619    0.000000                     |
 |             3        -0.171143    0.098809    0.000000                     |
 |             4         0.000000    0.000000    0.314909                     |
 +----------------------------------------------------------------------------+
  
 Time to get kmesh              0.274 (sec)
 *============================================================================*
 |                              MEMORY ESTIMATE                               |
 |         Maximum RAM allocated during each phase of the calculation         |
 *============================================================================*
 |                        Disentanglement           35.59 Mb                  |
 |                            Wannierise:            5.22 Mb                  |
 |                          plot_wannier:            5.22 Mb                  |
 *----------------------------------------------------------------------------*
  
 Starting a new Wannier90 calculation ...


 Reading overlaps from wannier90.mmn    : File generated by VASP: unknown system

 Reading projections from wannier90.amn : File generated by VASP: unknown system

 Time to read overlaps          1.079 (sec)

 *------------------------------- DISENTANGLE --------------------------------*
 +----------------------------------------------------------------------------+
 |                              Energy  Windows                               |
 |                              ---------------                               |
 |                   Outer:   -8.45631  to   17.00000  (eV)                   |
 |                   No frozen states were specified                          |
 +----------------------------------------------------------------------------+
   Number of target bands to extract:    4

                   Unitarised projection of Wannier functions                  
                   ------------------------------------------                  
   A_mn = <psi_m|g_n> --> S = A.A^+ --> U = S^-1/2.A
   In dis_project... done
   No inner window (linner = F)

                   Extraction of optimally-connected subspace                  
                   ------------------------------------------                  
 +---------------------------------------------------------------------+<-- DIS
 |  Iter     Omega_I(i-1)      Omega_I(i)      Delta (frac.)    Time   |<-- DIS
 +---------------------------------------------------------------------+<-- DIS
       1       5.60000215       5.34941349       4.684E-02      0.00    <-- DIS
       2       5.45978782       5.23420505       4.310E-02      0.02    <-- DIS
       3       5.33398233       5.13302889       3.915E-02      0.04    <-- DIS
       4       5.22188261       5.04234697       3.561E-02      0.06    <-- DIS
       5       5.12159753       4.96010219       3.256E-02      0.08    <-- DIS
       6       5.03124974       4.88490707       2.996E-02      0.10    <-- DIS
       7       4.94926073       4.81575805       2.772E-02      0.12    <-- DIS
       8       4.87437301       4.75189424       2.577E-02      0.14    <-- DIS
       9       4.80559957       4.69271697       2.405E-02      0.16    <-- DIS
      10       4.74216291       4.63774080       2.252E-02      0.18    <-- DIS
      11       4.68344259       4.58656228       2.112E-02      0.20    <-- DIS
      12       4.62893488       4.53883931       1.985E-02      0.22    <-- DIS
      13       4.57822308       4.49427698       1.868E-02      0.24    <-- DIS
      14       4.53095634       4.45261769       1.759E-02      0.26    <-- DIS
      15       4.48683438       4.41363393       1.659E-02      0.28    <-- DIS
      16       4.44559653       4.37712296       1.564E-02      0.30    <-- DIS
      17       4.40701381       4.34290282       1.476E-02      0.32    <-- DIS
      18       4.37088301       4.31080913       1.394E-02      0.34    <-- DIS
      19       4.33702232       4.28069271       1.316E-02      0.36    <-- DIS
      20       4.30526794       4.25241752       1.243E-02      0.38    <-- DIS
      21       4.27547143       4.22585910       1.174E-02      0.40    <-- DIS
      22       4.24749767       4.20090318       1.109E-02      0.42    <-- DIS
      23       4.22122312       4.17744462       1.048E-02      0.43    <-- DIS
      24       4.19653449       4.15538637       9.902E-03      0.45    <-- DIS
      25       4.17332755       4.13463873       9.357E-03      0.47    <-- DIS
      26       4.15150618       4.11511862       8.842E-03      0.49    <-- DIS
      27       4.13098155       4.09674894       8.356E-03      0.51    <-- DIS
      28       4.11167138       4.07945807       7.896E-03      0.53    <-- DIS
      29       4.09349938       4.06317935       7.462E-03      0.55    <-- DIS
      30       4.07639463       4.04785072       7.052E-03      0.57    <-- DIS
      31       4.06029121       4.03341428       6.664E-03      0.59    <-- DIS
      32       4.04512766       4.01981599       6.297E-03      0.61    <-- DIS
      33       4.03084672       4.00700538       5.950E-03      0.63    <-- DIS
      34       4.01739492       3.99493524       5.622E-03      0.65    <-- DIS
      35       4.00472231       3.98356139       5.312E-03      0.67    <-- DIS
      36       3.99278220       3.97284250       5.019E-03      0.69    <-- DIS
      37       3.98153089       3.96273979       4.742E-03      0.71    <-- DIS
      38       3.97092745       3.95321695       4.480E-03      0.73    <-- DIS
      39       3.96093357       3.94423991       4.232E-03      0.75    <-- DIS
      40       3.95151330       3.93577670       3.998E-03      0.77    <-- DIS
      41       3.94263294       3.92779729       3.777E-03      0.79    <-- DIS
      42       3.93426086       3.92027351       3.568E-03      0.81    <-- DIS
      43       3.92636736       3.91317886       3.370E-03      0.83    <-- DIS
      44       3.91892458       3.90648847       3.183E-03      0.85    <-- DIS
      45       3.91190630       3.90017892       3.007E-03      0.87    <-- DIS
      46       3.90528791       3.89422822       2.840E-03      0.89    <-- DIS
      47       3.89904626       3.88861568       2.682E-03      0.91    <-- DIS
      48       3.89315959       3.88332183       2.533E-03      0.92    <-- DIS
      49       3.88760742       3.87832833       2.393E-03      0.94    <-- DIS
      50       3.88237050       3.87361796       2.260E-03      0.96    <-- DIS
      51       3.87743071       3.86917447       2.134E-03      0.98    <-- DIS
      52       3.87277098       3.86498259       2.015E-03      1.00    <-- DIS
      53       3.86837526       3.86102792       1.903E-03      1.02    <-- DIS
      54       3.86422844       3.85729691       1.797E-03      1.04    <-- DIS
      55       3.86031626       3.85377679       1.697E-03      1.06    <-- DIS
      56       3.85662534       3.85045553       1.602E-03      1.08    <-- DIS
      57       3.85314304       3.84732181       1.513E-03      1.10    <-- DIS
      58       3.84985745       3.84436495       1.429E-03      1.12    <-- DIS
      59       3.84675739       3.84157488       1.349E-03      1.14    <-- DIS
      60       3.84383227       3.83894214       1.274E-03      1.16    <-- DIS
      61       3.84107216       3.83645778       1.203E-03      1.18    <-- DIS
      62       3.83846767       3.83411337       1.136E-03      1.20    <-- DIS
      63       3.83600997       3.83190099       1.072E-03      1.22    <-- DIS
      64       3.83369072       3.82981315       1.012E-03      1.23    <-- DIS
      65       3.83150208       3.82784279       9.560E-04      1.25    <-- DIS
      66       3.82943663       3.82598326       9.026E-04      1.27    <-- DIS
      67       3.82748740       3.82422829       8.522E-04      1.29    <-- DIS
      68       3.82564781       3.82257196       8.047E-04      1.31    <-- DIS
      69       3.82391165       3.82100870       7.597E-04      1.33    <-- DIS
      70       3.82227308       3.81953325       7.173E-04      1.35    <-- DIS
      71       3.82072658       3.81814066       6.773E-04      1.37    <-- DIS
      72       3.81926695       3.81682624       6.395E-04      1.39    <-- DIS
      73       3.81788927       3.81558558       6.038E-04      1.41    <-- DIS
      74       3.81658893       3.81441452       5.701E-04      1.43    <-- DIS
      75       3.81536156       3.81330915       5.382E-04      1.45    <-- DIS
      76       3.81420305       3.81226575       5.082E-04      1.47    <-- DIS
      77       3.81310951       3.81128084       4.798E-04      1.49    <-- DIS
      78       3.81207729       3.81035112       4.530E-04      1.50    <-- DIS
      79       3.81110292       3.80947349       4.277E-04      1.52    <-- DIS
      80       3.81018315       3.80864502       4.039E-04      1.55    <-- DIS
      81       3.80931492       3.80786294       3.813E-04      1.56    <-- DIS
      82       3.80849531       3.80712464       3.600E-04      1.58    <-- DIS
      83       3.80772160       3.80642766       3.399E-04      1.60    <-- DIS
      84       3.80699120       3.80576969       3.210E-04      1.62    <-- DIS
      85       3.80630168       3.80514852       3.031E-04      1.64    <-- DIS
      86       3.80565074       3.80456210       2.861E-04      1.66    <-- DIS
      87       3.80503622       3.80400847       2.702E-04      1.68    <-- DIS
      88       3.80445607       3.80348579       2.551E-04      1.70    <-- DIS
      89       3.80390836       3.80299232       2.409E-04      1.72    <-- DIS
      90       3.80339127       3.80252644       2.274E-04      1.74    <-- DIS
      91       3.80290308       3.80208658       2.148E-04      1.76    <-- DIS
      92       3.80244218       3.80167130       2.028E-04      1.78    <-- DIS
      93       3.80200702       3.80127921       1.915E-04      1.80    <-- DIS
      94       3.80159618       3.80090902       1.808E-04      1.82    <-- DIS
      95       3.80120828       3.80055949       1.707E-04      1.83    <-- DIS
      96       3.80084204       3.80022948       1.612E-04      1.85    <-- DIS
      97       3.80049625       3.79991789       1.522E-04      1.87    <-- DIS
      98       3.80016977       3.79962368       1.437E-04      1.89    <-- DIS
      99       3.79986150       3.79934589       1.357E-04      1.91    <-- DIS
     100       3.79957044       3.79908360       1.281E-04      1.93    <-- DIS
     101       3.79929562       3.79883593       1.210E-04      1.95    <-- DIS
     102       3.79903612       3.79860208       1.143E-04      1.97    <-- DIS
     103       3.79879110       3.79838127       1.079E-04      1.99    <-- DIS
     104       3.79855975       3.79817277       1.019E-04      2.01    <-- DIS
     105       3.79834130       3.79797589       9.621E-05      2.03    <-- DIS
     106       3.79813502       3.79778998       9.085E-05      2.05    <-- DIS
     107       3.79794025       3.79761444       8.579E-05      2.07    <-- DIS
     108       3.79775633       3.79744868       8.101E-05      2.09    <-- DIS
     109       3.79758266       3.79729215       7.650E-05      2.11    <-- DIS
     110       3.79741866       3.79714434       7.224E-05      2.12    <-- DIS
     111       3.79726381       3.79700477       6.822E-05      2.14    <-- DIS
     112       3.79711758       3.79687297       6.442E-05      2.16    <-- DIS
     113       3.79697949       3.79674851       6.084E-05      2.18    <-- DIS
     114       3.79684910       3.79663098       5.745E-05      2.20    <-- DIS
     115       3.79672597       3.79651999       5.425E-05      2.22    <-- DIS
     116       3.79660969       3.79641519       5.123E-05      2.24    <-- DIS
     117       3.79649989       3.79631621       4.838E-05      2.26    <-- DIS
     118       3.79639620       3.79622275       4.569E-05      2.28    <-- DIS
     119       3.79629828       3.79613449       4.315E-05      2.30    <-- DIS
     120       3.79620582       3.79605113       4.075E-05      2.32    <-- DIS
     121       3.79611850       3.79597242       3.848E-05      2.34    <-- DIS
     122       3.79603603       3.79589809       3.634E-05      2.36    <-- DIS
     123       3.79595816       3.79582789       3.432E-05      2.38    <-- DIS
     124       3.79588462       3.79576160       3.241E-05      2.39    <-- DIS
     125       3.79581517       3.79569899       3.061E-05      2.41    <-- DIS
     126       3.79574958       3.79563987       2.891E-05      2.43    <-- DIS
     127       3.79568765       3.79558403       2.730E-05      2.45    <-- DIS
     128       3.79562915       3.79553130       2.578E-05      2.47    <-- DIS
     129       3.79557391       3.79548150       2.435E-05      2.49    <-- DIS
     130       3.79552174       3.79543447       2.299E-05      2.51    <-- DIS
     131       3.79547248       3.79539006       2.172E-05      2.53    <-- DIS
     132       3.79542595       3.79534811       2.051E-05      2.55    <-- DIS
     133       3.79538201       3.79530850       1.937E-05      2.57    <-- DIS
     134       3.79534051       3.79527109       1.829E-05      2.59    <-- DIS
     135       3.79530132       3.79523575       1.728E-05      2.61    <-- DIS
     136       3.79526431       3.79520239       1.632E-05      2.63    <-- DIS
     137       3.79522935       3.79517087       1.541E-05      2.65    <-- DIS
     138       3.79519634       3.79514111       1.455E-05      2.66    <-- DIS
     139       3.79516516       3.79511300       1.374E-05      2.68    <-- DIS
     140       3.79513571       3.79508645       1.298E-05      2.70    <-- DIS
     141       3.79510790       3.79506138       1.226E-05      2.72    <-- DIS
     142       3.79508164       3.79503770       1.158E-05      2.74    <-- DIS
     143       3.79505684       3.79501534       1.093E-05      2.76    <-- DIS
     144       3.79503341       3.79499422       1.033E-05      2.78    <-- DIS
     145       3.79501129       3.79497427       9.754E-06      2.80    <-- DIS
     146       3.79499039       3.79495543       9.212E-06      2.82    <-- DIS
     147       3.79497065       3.79493764       8.700E-06      2.84    <-- DIS
     148       3.79495202       3.79492083       8.217E-06      2.86    <-- DIS
     149       3.79493441       3.79490496       7.760E-06      2.88    <-- DIS
     150       3.79491779       3.79488997       7.329E-06      2.90    <-- DIS
     151       3.79490208       3.79487581       6.922E-06      2.92    <-- DIS
     152       3.79488725       3.79486244       6.538E-06      2.94    <-- DIS
     153       3.79487325       3.79484981       6.175E-06      2.96    <-- DIS
     154       3.79486002       3.79483789       5.832E-06      2.98    <-- DIS
     155       3.79484753       3.79482662       5.508E-06      3.00    <-- DIS
     156       3.79483572       3.79481598       5.202E-06      3.02    <-- DIS
     157       3.79482458       3.79480593       4.913E-06      3.04    <-- DIS
     158       3.79481405       3.79479644       4.641E-06      3.06    <-- DIS
     159       3.79480411       3.79478748       4.383E-06      3.08    <-- DIS
     160       3.79479472       3.79477901       4.140E-06      3.10    <-- DIS
     161       3.79478585       3.79477102       3.910E-06      3.12    <-- DIS
     162       3.79477748       3.79476346       3.693E-06      3.13    <-- DIS
     163       3.79476957       3.79475633       3.488E-06      3.15    <-- DIS
     164       3.79476209       3.79474959       3.294E-06      3.17    <-- DIS
     165       3.79475504       3.79474323       3.111E-06      3.19    <-- DIS
     166       3.79474837       3.79473722       2.939E-06      3.21    <-- DIS
     167       3.79474208       3.79473154       2.776E-06      3.23    <-- DIS
     168       3.79473613       3.79472618       2.621E-06      3.25    <-- DIS
     169       3.79473052       3.79472112       2.476E-06      3.27    <-- DIS
     170       3.79472521       3.79471634       2.339E-06      3.29    <-- DIS
     171       3.79472020       3.79471182       2.209E-06      3.31    <-- DIS
     172       3.79471547       3.79470755       2.086E-06      3.33    <-- DIS
     173       3.79471100       3.79470352       1.970E-06      3.35    <-- DIS
     174       3.79470678       3.79469972       1.861E-06      3.37    <-- DIS
     175       3.79470279       3.79469612       1.758E-06      3.39    <-- DIS
     176       3.79469903       3.79469273       1.660E-06      3.41    <-- DIS
     177       3.79469547       3.79468952       1.568E-06      3.42    <-- DIS
     178       3.79469211       3.79468649       1.481E-06      3.44    <-- DIS
     179       3.79468894       3.79468363       1.399E-06      3.46    <-- DIS
     180       3.79468594       3.79468093       1.321E-06      3.48    <-- DIS
     181       3.79468311       3.79467838       1.248E-06      3.50    <-- DIS
     182       3.79468044       3.79467597       1.179E-06      3.52    <-- DIS
     183       3.79467791       3.79467369       1.113E-06      3.54    <-- DIS
     184       3.79467553       3.79467154       1.052E-06      3.56    <-- DIS
     185       3.79467328       3.79466951       9.932E-07      3.58    <-- DIS
     186       3.79467115       3.79466759       9.381E-07      3.60    <-- DIS
     187       3.79466914       3.79466578       8.860E-07      3.62    <-- DIS
     188       3.79466724       3.79466407       8.368E-07      3.64    <-- DIS
     189       3.79466545       3.79466245       7.904E-07      3.66    <-- DIS
     190       3.79466375       3.79466092       7.466E-07      3.68    <-- DIS
     191       3.79466216       3.79465948       7.051E-07      3.70    <-- DIS
     192       3.79466064       3.79465812       6.660E-07      3.72    <-- DIS
     193       3.79465922       3.79465683       6.291E-07      3.74    <-- DIS
     194       3.79465787       3.79465562       5.942E-07      3.76    <-- DIS
     195       3.79465660       3.79465447       5.612E-07      3.78    <-- DIS
     196       3.79465540       3.79465338       5.301E-07      3.80    <-- DIS
     197       3.79465426       3.79465236       5.007E-07      3.81    <-- DIS
     198       3.79465319       3.79465139       4.729E-07      3.83    <-- DIS
     199       3.79465217       3.79465048       4.467E-07      3.85    <-- DIS
     200       3.79465122       3.79464962       4.219E-07      3.87    <-- DIS
     201       3.79465031       3.79464880       3.985E-07      3.89    <-- DIS
     202       3.79464946       3.79464803       3.764E-07      3.92    <-- DIS
     203       3.79464865       3.79464730       3.555E-07      3.94    <-- DIS
     204       3.79464789       3.79464662       3.358E-07      3.96    <-- DIS
     205       3.79464717       3.79464597       3.171E-07      3.98    <-- DIS
     206       3.79464649       3.79464536       2.996E-07      3.99    <-- DIS
     207       3.79464585       3.79464478       2.829E-07      4.01    <-- DIS
     208       3.79464525       3.79464423       2.672E-07      4.03    <-- DIS
     209       3.79464467       3.79464372       2.524E-07      4.05    <-- DIS
     210       3.79464413       3.79464323       2.384E-07      4.07    <-- DIS
     211       3.79464362       3.79464277       2.252E-07      4.09    <-- DIS
     212       3.79464314       3.79464233       2.127E-07      4.11    <-- DIS
     213       3.79464268       3.79464192       2.009E-07      4.13    <-- DIS
     214       3.79464225       3.79464153       1.898E-07      4.15    <-- DIS
     215       3.79464185       3.79464117       1.792E-07      4.17    <-- DIS
     216       3.79464146       3.79464082       1.693E-07      4.19    <-- DIS
     217       3.79464110       3.79464049       1.599E-07      4.21    <-- DIS
     218       3.79464076       3.79464018       1.510E-07      4.23    <-- DIS
     219       3.79464043       3.79463989       1.427E-07      4.25    <-- DIS
     220       3.79464013       3.79463962       1.347E-07      4.27    <-- DIS
     221       3.79463984       3.79463936       1.273E-07      4.29    <-- DIS
     222       3.79463957       3.79463911       1.202E-07      4.31    <-- DIS
     223       3.79463931       3.79463888       1.135E-07      4.32    <-- DIS
     224       3.79463907       3.79463866       1.072E-07      4.34    <-- DIS
     225       3.79463884       3.79463845       1.013E-07      4.36    <-- DIS
     226       3.79463862       3.79463826       9.568E-08      4.38    <-- DIS
     227       3.79463841       3.79463807       9.037E-08      4.40    <-- DIS
     228       3.79463822       3.79463790       8.536E-08      4.42    <-- DIS
     229       3.79463804       3.79463773       8.063E-08      4.44    <-- DIS
     230       3.79463787       3.79463758       7.616E-08      4.46    <-- DIS
     231       3.79463770       3.79463743       7.193E-08      4.48    <-- DIS
     232       3.79463755       3.79463729       6.794E-08      4.50    <-- DIS
     233       3.79463740       3.79463716       6.418E-08      4.52    <-- DIS
     234       3.79463726       3.79463703       6.062E-08      4.54    <-- DIS
     235       3.79463713       3.79463692       5.725E-08      4.56    <-- DIS
     236       3.79463701       3.79463681       5.408E-08      4.58    <-- DIS
     237       3.79463690       3.79463670       5.108E-08      4.59    <-- DIS
     238       3.79463679       3.79463660       4.825E-08      4.61    <-- DIS
     239       3.79463668       3.79463651       4.557E-08      4.63    <-- DIS
     240       3.79463659       3.79463642       4.304E-08      4.65    <-- DIS
     241       3.79463649       3.79463634       4.066E-08      4.67    <-- DIS
     242       3.79463641       3.79463626       3.840E-08      4.69    <-- DIS
     243       3.79463632       3.79463619       3.627E-08      4.71    <-- DIS
     244       3.79463625       3.79463612       3.426E-08      4.73    <-- DIS
     245       3.79463617       3.79463605       3.236E-08      4.75    <-- DIS
     246       3.79463610       3.79463599       3.057E-08      4.77    <-- DIS
     247       3.79463604       3.79463593       2.887E-08      4.79    <-- DIS
     248       3.79463598       3.79463587       2.727E-08      4.81    <-- DIS
     249       3.79463592       3.79463582       2.576E-08      4.83    <-- DIS
     250       3.79463586       3.79463577       2.433E-08      4.85    <-- DIS
     251       3.79463581       3.79463572       2.298E-08      4.87    <-- DIS
     252       3.79463576       3.79463568       2.171E-08      4.89    <-- DIS
     253       3.79463572       3.79463564       2.050E-08      4.90    <-- DIS
     254       3.79463567       3.79463560       1.937E-08      4.92    <-- DIS
     255       3.79463563       3.79463556       1.829E-08      4.94    <-- DIS
     256       3.79463559       3.79463553       1.728E-08      4.96    <-- DIS
     257       3.79463555       3.79463549       1.632E-08      4.98    <-- DIS
     258       3.79463552       3.79463546       1.541E-08      5.00    <-- DIS
     259       3.79463549       3.79463543       1.456E-08      5.02    <-- DIS
     260       3.79463545       3.79463540       1.375E-08      5.04    <-- DIS
     261       3.79463543       3.79463538       1.299E-08      5.06    <-- DIS
     262       3.79463540       3.79463535       1.227E-08      5.08    <-- DIS
     263       3.79463537       3.79463533       1.159E-08      5.10    <-- DIS
     264       3.79463535       3.79463530       1.095E-08      5.12    <-- DIS
     265       3.79463532       3.79463528       1.034E-08      5.14    <-- DIS
     266       3.79463530       3.79463526       9.766E-09      5.16    <-- DIS
     267       3.79463528       3.79463524       9.225E-09      5.17    <-- DIS
     268       3.79463526       3.79463523       8.713E-09      5.19    <-- DIS
     269       3.79463524       3.79463521       8.230E-09      5.21    <-- DIS
     270       3.79463522       3.79463519       7.774E-09      5.23    <-- DIS
     271       3.79463521       3.79463518       7.343E-09      5.25    <-- DIS
     272       3.79463519       3.79463516       6.936E-09      5.27    <-- DIS
     273       3.79463518       3.79463515       6.551E-09      5.29    <-- DIS
     274       3.79463516       3.79463514       6.188E-09      5.31    <-- DIS
     275       3.79463515       3.79463513       5.845E-09      5.33    <-- DIS
     276       3.79463514       3.79463512       5.521E-09      5.35    <-- DIS
     277       3.79463512       3.79463510       5.215E-09      5.37    <-- DIS
     278       3.79463511       3.79463509       4.926E-09      5.39    <-- DIS
     279       3.79463510       3.79463509       4.652E-09      5.41    <-- DIS
     280       3.79463509       3.79463508       4.394E-09      5.43    <-- DIS
     281       3.79463508       3.79463507       4.151E-09      5.44    <-- DIS
     282       3.79463507       3.79463506       3.921E-09      5.46    <-- DIS
     283       3.79463507       3.79463505       3.703E-09      5.48    <-- DIS
     284       3.79463506       3.79463505       3.498E-09      5.50    <-- DIS
     285       3.79463505       3.79463504       3.304E-09      5.52    <-- DIS
     286       3.79463504       3.79463503       3.121E-09      5.54    <-- DIS
     287       3.79463504       3.79463503       2.948E-09      5.56    <-- DIS
     288       3.79463503       3.79463502       2.785E-09      5.58    <-- DIS
     289       3.79463502       3.79463501       2.630E-09      5.60    <-- DIS
     290       3.79463502       3.79463501       2.484E-09      5.62    <-- DIS
     291       3.79463501       3.79463500       2.347E-09      5.64    <-- DIS
     292       3.79463501       3.79463500       2.217E-09      5.66    <-- DIS
     293       3.79463500       3.79463500       2.094E-09      5.68    <-- DIS
     294       3.79463500       3.79463499       1.978E-09      5.70    <-- DIS
     295       3.79463500       3.79463499       1.868E-09      5.72    <-- DIS
     296       3.79463499       3.79463498       1.765E-09      5.74    <-- DIS
     297       3.79463499       3.79463498       1.667E-09      5.76    <-- DIS
     298       3.79463498       3.79463498       1.574E-09      5.78    <-- DIS
     299       3.79463498       3.79463497       1.487E-09      5.79    <-- DIS
     300       3.79463498       3.79463497       1.405E-09      5.81    <-- DIS
     301       3.79463497       3.79463497       1.327E-09      5.83    <-- DIS
     302       3.79463497       3.79463497       1.253E-09      5.85    <-- DIS
     303       3.79463497       3.79463496       1.184E-09      5.87    <-- DIS
     304       3.79463497       3.79463496       1.118E-09      5.89    <-- DIS
     305       3.79463496       3.79463496       1.056E-09      5.91    <-- DIS
     306       3.79463496       3.79463496       9.978E-10      5.93    <-- DIS
     307       3.79463496       3.79463496       9.425E-10      5.95    <-- DIS
     308       3.79463496       3.79463495       8.903E-10      5.97    <-- DIS
     309       3.79463496       3.79463495       8.410E-10      5.99    <-- DIS
     310       3.79463495       3.79463495       7.944E-10      6.01    <-- DIS
     311       3.79463495       3.79463495       7.504E-10      6.03    <-- DIS
     312       3.79463495       3.79463495       7.088E-10      6.05    <-- DIS
     313       3.79463495       3.79463495       6.696E-10      6.07    <-- DIS
     314       3.79463495       3.79463495       6.325E-10      6.09    <-- DIS
     315       3.79463495       3.79463494       5.975E-10      6.10    <-- DIS
     316       3.79463494       3.79463494       5.644E-10      6.12    <-- DIS
     317       3.79463494       3.79463494       5.331E-10      6.14    <-- DIS
     318       3.79463494       3.79463494       5.036E-10      6.16    <-- DIS
     319       3.79463494       3.79463494       4.757E-10      6.18    <-- DIS
     320       3.79463494       3.79463494       4.494E-10      6.20    <-- DIS
     321       3.79463494       3.79463494       4.245E-10      6.22    <-- DIS
     322       3.79463494       3.79463494       4.010E-10      6.24    <-- DIS
     323       3.79463494       3.79463494       3.788E-10      6.26    <-- DIS
     324       3.79463494       3.79463494       3.579E-10      6.28    <-- DIS
     325       3.79463494       3.79463493       3.381E-10      6.30    <-- DIS
     326       3.79463494       3.79463493       3.193E-10      6.32    <-- DIS
     327       3.79463493       3.79463493       3.017E-10      6.34    <-- DIS
     328       3.79463493       3.79463493       2.850E-10      6.36    <-- DIS
     329       3.79463493       3.79463493       2.692E-10      6.37    <-- DIS
     330       3.79463493       3.79463493       2.543E-10      6.39    <-- DIS
     331       3.79463493       3.79463493       2.403E-10      6.41    <-- DIS
     332       3.79463493       3.79463493       2.270E-10      6.43    <-- DIS
     333       3.79463493       3.79463493       2.144E-10      6.45    <-- DIS
     334       3.79463493       3.79463493       2.026E-10      6.47    <-- DIS
     335       3.79463493       3.79463493       1.914E-10      6.49    <-- DIS
     336       3.79463493       3.79463493       1.808E-10      6.51    <-- DIS
     337       3.79463493       3.79463493       1.708E-10      6.53    <-- DIS
     338       3.79463493       3.79463493       1.614E-10      6.55    <-- DIS
     339       3.79463493       3.79463493       1.525E-10      6.57    <-- DIS
     340       3.79463493       3.79463493       1.441E-10      6.59    <-- DIS
     341       3.79463493       3.79463493       1.361E-10      6.61    <-- DIS
     342       3.79463493       3.79463493       1.286E-10      6.63    <-- DIS
     343       3.79463493       3.79463493       1.215E-10      6.65    <-- DIS
     344       3.79463493       3.79463493       1.148E-10      6.66    <-- DIS
     345       3.79463493       3.79463493       1.085E-10      6.68    <-- DIS
     346       3.79463493       3.79463493       1.025E-10      6.70    <-- DIS
     347       3.79463493       3.79463493       9.686E-11      6.72    <-- DIS
     348       3.79463493       3.79463493       9.152E-11      6.74    <-- DIS
     349       3.79463493       3.79463493       8.648E-11      6.76    <-- DIS

             <<<      Delta < 1.000E-10  over  3 iterations     >>>
             <<< Disentanglement convergence criteria satisfied >>>

        Final Omega_I     3.79463493 (Ang^2)

 +----------------------------------------------------------------------------+

 Time to disentangle bands      6.819 (sec)

 Writing checkpoint file wannier90.chk... done

 
 *------------------------------- WANNIERISE ---------------------------------*
 +--------------------------------------------------------------------+<-- CONV
 | Iter  Delta Spread     RMS Gradient      Spread (Ang^2)      Time  |<-- CONV
 +--------------------------------------------------------------------+<-- CONV
 
 ------------------------------------------------------------------------------
 Initial State
  WF centre and spread    1  (  0.000002, -0.000006,  0.000021 )     0.96110743
  WF centre and spread    2  (  0.000001,  1.413085, -0.000027 )     0.95835879
  WF centre and spread    3  (  0.000006,  1.413066,  3.325431 )     0.95842071
  WF centre and spread    4  (  1.223778,  0.706522,  3.325383 )     0.96095481
  Sum of centres and spreads (  1.223787,  3.532668,  6.650808 )     3.83884174
 
      0     0.384E+01     0.0000000000        3.8388417297       6.82  <-- CONV
        O_D=      0.0287138 O_OD=      0.0154930 O_TOT=      3.8388417 <-- SPRD
 ------------------------------------------------------------------------------
 Cycle:      1
  WF centre and spread    1  (  0.000002, -0.000006,  0.000021 )     0.95903033
  WF centre and spread    2  (  0.000001,  1.413085, -0.000027 )     0.95549955
  WF centre and spread    3  (  0.000006,  1.413066,  3.325431 )     0.95555615
  WF centre and spread    4  (  1.223778,  0.706522,  3.325383 )     0.95888557
  Sum of centres and spreads (  1.223787,  3.532668,  6.650808 )     3.82897160
 
      1    -0.987E-02     0.0498311339        3.8289715899       6.84  <-- CONV
        O_D=      0.0237951 O_OD=      0.0105416 O_TOT=      3.8289716 <-- SPRD
 Delta: O_D= -0.4918717E-02 O_OD= -0.4951423E-02 O_TOT= -0.9870140E-02 <-- DLTA
 ------------------------------------------------------------------------------
 Cycle:      2
  WF centre and spread    1  (  0.000002, -0.000006,  0.000021 )     0.95786320
  WF centre and spread    2  (  0.000001,  1.413085, -0.000027 )     0.95358373
  WF centre and spread    3  (  0.000006,  1.413066,  3.325431 )     0.95362688
  WF centre and spread    4  (  1.223778,  0.706522,  3.325383 )     0.95772279
  Sum of centres and spreads (  1.223787,  3.532668,  6.650808 )     3.82279660
 
      2    -0.618E-02     0.0509511204        3.8227965897       6.85  <-- CONV
        O_D=      0.0208304 O_OD=      0.0073313 O_TOT=      3.8227966 <-- SPRD
 Delta: O_D= -0.2964742E-02 O_OD= -0.3210259E-02 O_TOT= -0.6175000E-02 <-- DLTA
 ------------------------------------------------------------------------------
 Cycle:      3
  WF centre and spread    1  (  0.000002, -0.000006,  0.000021 )     0.95763716
  WF centre and spread    2  (  0.000001,  1.413085, -0.000027 )     0.95316729
  WF centre and spread    3  (  0.000006,  1.413066,  3.325431 )     0.95320348
  WF centre and spread    4  (  1.223778,  0.706522,  3.325383 )     0.95749977
  Sum of centres and spreads (  1.223787,  3.532668,  6.650808 )     3.82150771
 
      3    -0.129E-02     0.0252249019        3.8215076951       6.87  <-- CONV
        O_D=      0.0201612 O_OD=      0.0067115 O_TOT=      3.8215077 <-- SPRD
 Delta: O_D= -0.6691298E-03 O_OD= -0.6197648E-03 O_TOT= -0.1288895E-02 <-- DLTA
 ------------------------------------------------------------------------------
 Cycle:      4
  WF centre and spread    1  (  0.000002, -0.000006,  0.000021 )     0.95755344
  WF centre and spread    2  (  0.000001,  1.413085, -0.000027 )     0.95307180
  WF centre and spread    3  (  0.000006,  1.413066,  3.325431 )     0.95310653
  WF centre and spread    4  (  1.223778,  0.706522,  3.325383 )     0.95741632
  Sum of centres and spreads (  1.223787,  3.532668,  6.650808 )     3.82114810
 
      4    -0.360E-03     0.0136452946        3.8211480826       6.88  <-- CONV
        O_D=      0.0199545 O_OD=      0.0065586 O_TOT=      3.8211481 <-- SPRD
 Delta: O_D= -0.2067144E-03 O_OD= -0.1528981E-03 O_TOT= -0.3596125E-03 <-- DLTA
 ------------------------------------------------------------------------------
 Cycle:      5
  WF centre and spread    1  (  0.000002, -0.000006,  0.000021 )     0.95750442
  WF centre and spread    2  (  0.000001,  1.413085, -0.000027 )     0.95308386
  WF centre and spread    3  (  0.000006,  1.413066,  3.325431 )     0.95311702
  WF centre and spread    4  (  1.223778,  0.706522,  3.325383 )     0.95736910
  Sum of centres and spreads (  1.223787,  3.532668,  6.650808 )     3.82107440
 
      5    -0.737E-04     0.0060967063        3.8210743908       6.89  <-- CONV
        O_D=      0.0199335 O_OD=      0.0065059 O_TOT=      3.8210744 <-- SPRD
 Delta: O_D= -0.2099028E-04 O_OD= -0.5270154E-04 O_TOT= -0.7369182E-04 <-- DLTA
 ------------------------------------------------------------------------------
 Cycle:      6
  WF centre and spread    1  (  0.000002, -0.000006,  0.000021 )     0.95746142
  WF centre and spread    2  (  0.000001,  1.413085, -0.000027 )     0.95311473
  WF centre and spread    3  (  0.000006,  1.413066,  3.325431 )     0.95314667
  WF centre and spread    4  (  1.223778,  0.706522,  3.325383 )     0.95732712
  Sum of centres and spreads (  1.223787,  3.532668,  6.650808 )     3.82104993
 
      6    -0.245E-04     0.0032388056        3.8210499213       6.91  <-- CONV
        O_D=      0.0199322 O_OD=      0.0064828 O_TOT=      3.8210499 <-- SPRD
 Delta: O_D= -0.1317981E-05 O_OD= -0.2315153E-04 O_TOT= -0.2446951E-04 <-- DLTA
 ------------------------------------------------------------------------------
 Cycle:      7
  WF centre and spread    1  (  0.000002, -0.000006,  0.000021 )     0.95744676
  WF centre and spread    2  (  0.000001,  1.413085, -0.000027 )     0.95312495
  WF centre and spread    3  (  0.000006,  1.413066,  3.325431 )     0.95315623
  WF centre and spread    4  (  1.223778,  0.706522,  3.325383 )     0.95731287
  Sum of centres and spreads (  1.223787,  3.532668,  6.650808 )     3.82104081
 
      7    -0.912E-05     0.0023116993        3.8210408005       6.92  <-- CONV
        O_D=      0.0199302 O_OD=      0.0064756 O_TOT=      3.8210408 <-- SPRD
 Delta: O_D= -0.1971489E-05 O_OD= -0.7149238E-05 O_TOT= -0.9120728E-05 <-- DLTA
 ------------------------------------------------------------------------------
 Cycle:      8
  WF centre and spread    1  (  0.000002, -0.000006,  0.000021 )     0.95741308
  WF centre and spread    2  (  0.000001,  1.413085, -0.000027 )     0.95315504
  WF centre and spread    3  (  0.000006,  1.413066,  3.325431 )     0.95318451
  WF centre and spread    4  (  1.223778,  0.706522,  3.325383 )     0.95728051
  Sum of centres and spreads (  1.223787,  3.532668,  6.650808 )     3.82103314
 
      8    -0.767E-05     0.0015694197        3.8210331305       6.94  <-- CONV
        O_D=      0.0199302 O_OD=      0.0064680 O_TOT=      3.8210331 <-- SPRD
 Delta: O_D= -0.8976848E-08 O_OD= -0.7661075E-05 O_TOT= -0.7670052E-05 <-- DLTA
 ------------------------------------------------------------------------------
 Cycle:      9
  WF centre and spread    1  (  0.000002, -0.000006,  0.000021 )     0.95737942
  WF centre and spread    2  (  0.000001,  1.413085, -0.000027 )     0.95318657
  WF centre and spread    3  (  0.000006,  1.413066,  3.325431 )     0.95321375
  WF centre and spread    4  (  1.223778,  0.706522,  3.325383 )     0.95724886
  Sum of centres and spreads (  1.223787,  3.532668,  6.650808 )     3.82102861
 
      9    -0.454E-05     0.0012846410        3.8210285944       6.95  <-- CONV
        O_D=      0.0199305 O_OD=      0.0064632 O_TOT=      3.8210286 <-- SPRD
 Delta: O_D=  0.2888474E-06 O_OD= -0.4824899E-05 O_TOT= -0.4536052E-05 <-- DLTA
 ------------------------------------------------------------------------------
 Cycle:     10
  WF centre and spread    1  (  0.000002, -0.000006,  0.000021 )     0.95736010
  WF centre and spread    2  (  0.000001,  1.413085, -0.000027 )     0.95320508
  WF centre and spread    3  (  0.000006,  1.413066,  3.325431 )     0.95323051
  WF centre and spread    4  (  1.223778,  0.706522,  3.325383 )     0.95723113
  Sum of centres and spreads (  1.223787,  3.532668,  6.650808 )     3.82102681
 
     10    -0.179E-05     0.0008865776        3.8210268017       6.97  <-- CONV
        O_D=      0.0199301 O_OD=      0.0064618 O_TOT=      3.8210268 <-- SPRD
 Delta: O_D= -0.4397518E-06 O_OD= -0.1353004E-05 O_TOT= -0.1792756E-05 <-- DLTA
 ------------------------------------------------------------------------------
 Cycle:     11
  WF centre and spread    1  (  0.000002, -0.000006,  0.000021 )     0.95734527
  WF centre and spread    2  (  0.000001,  1.413085, -0.000027 )     0.95321949
  WF centre and spread    3  (  0.000006,  1.413066,  3.325431 )     0.95324305
  WF centre and spread    4  (  1.223778,  0.706522,  3.325383 )     0.95721804
  Sum of centres and spreads (  1.223787,  3.532668,  6.650808 )     3.82102585
 
     11    -0.965E-06     0.0005876066        3.8210258366       6.98  <-- CONV
        O_D=      0.0199300 O_OD=      0.0064609 O_TOT=      3.8210258 <-- SPRD
 Delta: O_D= -0.1001428E-06 O_OD= -0.8649609E-06 O_TOT= -0.9651037E-06 <-- DLTA
 ------------------------------------------------------------------------------
 Cycle:     12
  WF centre and spread    1  (  0.000002, -0.000006,  0.000021 )     0.95733741
  WF centre and spread    2  (  0.000001,  1.413085, -0.000027 )     0.95322723
  WF centre and spread    3  (  0.000006,  1.413066,  3.325431 )     0.95324936
  WF centre and spread    4  (  1.223778,  0.706522,  3.325383 )     0.95721149
  Sum of centres and spreads (  1.223787,  3.532668,  6.650808 )     3.82102549
 
     12    -0.356E-06     0.0004000841        3.8210254804       7.00  <-- CONV
        O_D=      0.0199300 O_OD=      0.0064605 O_TOT=      3.8210255 <-- SPRD
 Delta: O_D=  0.5440271E-07 O_OD= -0.4105813E-06 O_TOT= -0.3561786E-06 <-- DLTA
 ------------------------------------------------------------------------------
 Cycle:     13
  WF centre and spread    1  (  0.000002, -0.000006,  0.000021 )     0.95733524
  WF centre and spread    2  (  0.000001,  1.413085, -0.000027 )     0.95322933
  WF centre and spread    3  (  0.000006,  1.413066,  3.325431 )     0.95325084
  WF centre and spread    4  (  1.223778,  0.706522,  3.325383 )     0.95720993
  Sum of centres and spreads (  1.223787,  3.532668,  6.650808 )     3.82102534
 
     13    -0.153E-06     0.0002696704        3.8210253274       7.01  <-- CONV
        O_D=      0.0199300 O_OD=      0.0064604 O_TOT=      3.8210253 <-- SPRD
 Delta: O_D= -0.5403701E-07 O_OD= -0.9900713E-07 O_TOT= -0.1530441E-06 <-- DLTA
 ------------------------------------------------------------------------------
 Cycle:     14
  WF centre and spread    1  (  0.000002, -0.000006,  0.000021 )     0.95733067
  WF centre and spread    2  (  0.000001,  1.413085, -0.000027 )     0.95323385
  WF centre and spread    3  (  0.000006,  1.413066,  3.325431 )     0.95325416
  WF centre and spread    4  (  1.223778,  0.706522,  3.325383 )     0.95720654
  Sum of centres and spreads (  1.223787,  3.532668,  6.650808 )     3.82102523
 
     14    -0.113E-06     0.0002070093        3.8210252139       7.03  <-- CONV
        O_D=      0.0199300 O_OD=      0.0064603 O_TOT=      3.8210252 <-- SPRD
 Delta: O_D=  0.3542325E-08 O_OD= -0.1170192E-06 O_TOT= -0.1134769E-06 <-- DLTA
 ------------------------------------------------------------------------------
 Cycle:     15
  WF centre and spread    1  (  0.000002, -0.000006,  0.000021 )     0.95732488
  WF centre and spread    2  (  0.000001,  1.413085, -0.000027 )     0.95323962
  WF centre and spread    3  (  0.000006,  1.413066,  3.325431 )     0.95325857
  WF centre and spread    4  (  1.223778,  0.706522,  3.325383 )     0.95720210
  Sum of centres and spreads (  1.223787,  3.532668,  6.650808 )     3.82102517
 
     15    -0.603E-07     0.0001483951        3.8210251536       7.04  <-- CONV
        O_D=      0.0199300 O_OD=      0.0064602 O_TOT=      3.8210252 <-- SPRD
 Delta: O_D=  0.2671081E-07 O_OD= -0.8699287E-07 O_TOT= -0.6028206E-07 <-- DLTA
 ------------------------------------------------------------------------------
 Cycle:     16
  WF centre and spread    1  (  0.000002, -0.000006,  0.000021 )     0.95731545
  WF centre and spread    2  (  0.000001,  1.413085, -0.000027 )     0.95324904
  WF centre and spread    3  (  0.000006,  1.413066,  3.325431 )     0.95326589
  WF centre and spread    4  (  1.223778,  0.706522,  3.325383 )     0.95719473
  Sum of centres and spreads (  1.223787,  3.532668,  6.650808 )     3.82102511
 
     16    -0.548E-07     0.0001276648        3.8210250988       7.06  <-- CONV
        O_D=      0.0199300 O_OD=      0.0064602 O_TOT=      3.8210251 <-- SPRD
 Delta: O_D=  0.1066268E-07 O_OD= -0.6548273E-07 O_TOT= -0.5482005E-07 <-- DLTA
 ------------------------------------------------------------------------------
 Cycle:     17
  WF centre and spread    1  (  0.000002, -0.000006,  0.000021 )     0.95730610
  WF centre and spread    2  (  0.000001,  1.413085, -0.000027 )     0.95325838
  WF centre and spread    3  (  0.000006,  1.413066,  3.325431 )     0.95327326
  WF centre and spread    4  (  1.223778,  0.706522,  3.325383 )     0.95718734
  Sum of centres and spreads (  1.223787,  3.532668,  6.650808 )     3.82102508
 
     17    -0.352E-07     0.0001116059        3.8210250635       7.07  <-- CONV
        O_D=      0.0199300 O_OD=      0.0064601 O_TOT=      3.8210251 <-- SPRD
 Delta: O_D=  0.1448921E-07 O_OD= -0.4972556E-07 O_TOT= -0.3523634E-07 <-- DLTA
 ------------------------------------------------------------------------------
 Cycle:     18
  WF centre and spread    1  (  0.000002, -0.000006,  0.000021 )     0.95729661
  WF centre and spread    2  (  0.000001,  1.413085, -0.000027 )     0.95326786
  WF centre and spread    3  (  0.000006,  1.413066,  3.325431 )     0.95328082
  WF centre and spread    4  (  1.223778,  0.706522,  3.325383 )     0.95717976
  Sum of centres and spreads (  1.223787,  3.532668,  6.650808 )     3.82102505
 
     18    -0.239E-07     0.0000890376        3.8210250397       7.09  <-- CONV
        O_D=      0.0199301 O_OD=      0.0064601 O_TOT=      3.8210250 <-- SPRD
 Delta: O_D=  0.1694900E-07 O_OD= -0.4081271E-07 O_TOT= -0.2386372E-07 <-- DLTA
 ------------------------------------------------------------------------------
 Cycle:     19
  WF centre and spread    1  (  0.000002, -0.000006,  0.000021 )     0.95729512
  WF centre and spread    2  (  0.000001,  1.413085, -0.000027 )     0.95326934
  WF centre and spread    3  (  0.000006,  1.413066,  3.325431 )     0.95328200
  WF centre and spread    4  (  1.223778,  0.706522,  3.325383 )     0.95717858
  Sum of centres and spreads (  1.223787,  3.532668,  6.650808 )     3.82102504
 
     19    -0.132E-07     0.0000865287        3.8210250265       7.10  <-- CONV
        O_D=      0.0199300 O_OD=      0.0064601 O_TOT=      3.8210250 <-- SPRD
 Delta: O_D= -0.3368614E-08 O_OD= -0.9809773E-08 O_TOT= -0.1317839E-07 <-- DLTA
 ------------------------------------------------------------------------------
 Cycle:     20
  WF centre and spread    1  (  0.000002, -0.000006,  0.000021 )     0.95729153
  WF centre and spread    2  (  0.000001,  1.413085, -0.000027 )     0.95327293
  WF centre and spread    3  (  0.000006,  1.413066,  3.325431 )     0.95328484
  WF centre and spread    4  (  1.223778,  0.706522,  3.325383 )     0.95717574
  Sum of centres and spreads (  1.223787,  3.532668,  6.650808 )     3.82102503
 
     20    -0.912E-08     0.0000543226        3.8210250174       7.11  <-- CONV
        O_D=      0.0199300 O_OD=      0.0064600 O_TOT=      3.8210250 <-- SPRD
 Delta: O_D=  0.1331033E-08 O_OD= -0.1044976E-07 O_TOT= -0.9118725E-08 <-- DLTA
 ------------------------------------------------------------------------------
 Cycle:     21
  WF centre and spread    1  (  0.000002, -0.000006,  0.000021 )     0.95728544
  WF centre and spread    2  (  0.000001,  1.413085, -0.000027 )     0.95327901
  WF centre and spread    3  (  0.000006,  1.413066,  3.325431 )     0.95328962
  WF centre and spread    4  (  1.223778,  0.706522,  3.325383 )     0.95717095
  Sum of centres and spreads (  1.223787,  3.532668,  6.650808 )     3.82102502
 
     21    -0.921E-08     0.0000507100        3.8210250082       7.13  <-- CONV
        O_D=      0.0199301 O_OD=      0.0064600 O_TOT=      3.8210250 <-- SPRD
 Delta: O_D=  0.3422709E-08 O_OD= -0.1263514E-07 O_TOT= -0.9212430E-08 <-- DLTA
 ------------------------------------------------------------------------------
 Cycle:     22
  WF centre and spread    1  (  0.000002, -0.000006,  0.000021 )     0.95727635
  WF centre and spread    2  (  0.000001,  1.413085, -0.000027 )     0.95328809
  WF centre and spread    3  (  0.000006,  1.413066,  3.325431 )     0.95329670
  WF centre and spread    4  (  1.223778,  0.706522,  3.325383 )     0.95716387
  Sum of centres and spreads (  1.223787,  3.532668,  6.650808 )     3.82102501
 
     22    -0.955E-08     0.0000490515        3.8210249986       7.14  <-- CONV
        O_D=      0.0199301 O_OD=      0.0064600 O_TOT=      3.8210250 <-- SPRD
 Delta: O_D= -0.1146948E-08 O_OD= -0.8407746E-08 O_TOT= -0.9554695E-08 <-- DLTA
 ------------------------------------------------------------------------------
 Cycle:     23
  WF centre and spread    1  (  0.000002, -0.000006,  0.000021 )     0.95726133
  WF centre and spread    2  (  0.000001,  1.413085, -0.000027 )     0.95330308
  WF centre and spread    3  (  0.000006,  1.413066,  3.325431 )     0.95330833
  WF centre and spread    4  (  1.223778,  0.706522,  3.325383 )     0.95715225
  Sum of centres and spreads (  1.223787,  3.532668,  6.650808 )     3.82102500
 
     23    -0.139E-07     0.0000602007        3.8210249847       7.16  <-- CONV
        O_D=      0.0199301 O_OD=      0.0064600 O_TOT=      3.8210250 <-- SPRD
 Delta: O_D=  0.3387945E-08 O_OD= -0.1731025E-07 O_TOT= -0.1392231E-07 <-- DLTA
 ------------------------------------------------------------------------------
 Cycle:     24
  WF centre and spread    1  (  0.000002, -0.000006,  0.000021 )     0.95725009
  WF centre and spread    2  (  0.000001,  1.413085, -0.000027 )     0.95331432
  WF centre and spread    3  (  0.000006,  1.413066,  3.325431 )     0.95331698
  WF centre and spread    4  (  1.223778,  0.706522,  3.325383 )     0.95714361
  Sum of centres and spreads (  1.223787,  3.532668,  6.650808 )     3.82102499
 
     24    -0.102E-07     0.0000601937        3.8210249745       7.17  <-- CONV
        O_D=      0.0199301 O_OD=      0.0064600 O_TOT=      3.8210250 <-- SPRD
 Delta: O_D=  0.5789755E-08 O_OD= -0.1595892E-07 O_TOT= -0.1016917E-07 <-- DLTA
 ------------------------------------------------------------------------------
 Cycle:     25
  WF centre and spread    1  (  0.000002, -0.000006,  0.000021 )     0.95724982
  WF centre and spread    2  (  0.000001,  1.413085, -0.000027 )     0.95331458
  WF centre and spread    3  (  0.000006,  1.413066,  3.325431 )     0.95331713
  WF centre and spread    4  (  1.223778,  0.706522,  3.325383 )     0.95714345
  Sum of centres and spreads (  1.223787,  3.532668,  6.650808 )     3.82102498
 
     25    -0.543E-08     0.0000526642        3.8210249691       7.19  <-- CONV
        O_D=      0.0199301 O_OD=      0.0064600 O_TOT=      3.8210250 <-- SPRD
 Delta: O_D= -0.4773533E-08 O_OD= -0.6594557E-09 O_TOT= -0.5432989E-08 <-- DLTA
 ------------------------------------------------------------------------------
 Cycle:     26
  WF centre and spread    1  (  0.000002, -0.000006,  0.000021 )     0.95724925
  WF centre and spread    2  (  0.000001,  1.413085, -0.000027 )     0.95331516
  WF centre and spread    3  (  0.000006,  1.413066,  3.325431 )     0.95331752
  WF centre and spread    4  (  1.223778,  0.706522,  3.325383 )     0.95714306
  Sum of centres and spreads (  1.223787,  3.532668,  6.650808 )     3.82102498
 
     26    -0.330E-08     0.0000352857        3.8210249658       7.20  <-- CONV
        O_D=      0.0199301 O_OD=      0.0064600 O_TOT=      3.8210250 <-- SPRD
 Delta: O_D= -0.5015108E-09 O_OD= -0.2797300E-08 O_TOT= -0.3298810E-08 <-- DLTA
 ------------------------------------------------------------------------------
 Cycle:     27
  WF centre and spread    1  (  0.000002, -0.000006,  0.000021 )     0.95724863
  WF centre and spread    2  (  0.000001,  1.413085, -0.000027 )     0.95331577
  WF centre and spread    3  (  0.000006,  1.413066,  3.325431 )     0.95331796
  WF centre and spread    4  (  1.223778,  0.706522,  3.325383 )     0.95714261
  Sum of centres and spreads (  1.223787,  3.532668,  6.650808 )     3.82102498
 
     27    -0.115E-08     0.0000224278        3.8210249646       7.22  <-- CONV
        O_D=      0.0199301 O_OD=      0.0064600 O_TOT=      3.8210250 <-- SPRD
 Delta: O_D=  0.1054279E-08 O_OD= -0.2205156E-08 O_TOT= -0.1150877E-08 <-- DLTA
 ------------------------------------------------------------------------------
 Cycle:     28
  WF centre and spread    1  (  0.000002, -0.000006,  0.000021 )     0.95724788
  WF centre and spread    2  (  0.000001,  1.413085, -0.000027 )     0.95331652
  WF centre and spread    3  (  0.000006,  1.413066,  3.325431 )     0.95331852
  WF centre and spread    4  (  1.223778,  0.706522,  3.325383 )     0.95714205
  Sum of centres and spreads (  1.223787,  3.532668,  6.650808 )     3.82102498
 
     28    -0.752E-09     0.0000156680        3.8210249639       7.23  <-- CONV
        O_D=      0.0199301 O_OD=      0.0064600 O_TOT=      3.8210250 <-- SPRD
 Delta: O_D=  0.2722552E-09 O_OD= -0.1024375E-08 O_TOT= -0.7521197E-09 <-- DLTA
 ------------------------------------------------------------------------------
 Cycle:     29
  WF centre and spread    1  (  0.000002, -0.000006,  0.000021 )     0.95724788
  WF centre and spread    2  (  0.000001,  1.413085, -0.000027 )     0.95331653
  WF centre and spread    3  (  0.000006,  1.413066,  3.325431 )     0.95331852
  WF centre and spread    4  (  1.223778,  0.706522,  3.325383 )     0.95714205
  Sum of centres and spreads (  1.223787,  3.532668,  6.650808 )     3.82102498
 
     29    -0.124E-11     0.0000105943        3.8210249639       7.24  <-- CONV
        O_D=      0.0199301 O_OD=      0.0064600 O_TOT=      3.8210250 <-- SPRD
 Delta: O_D=  0.4027716E-12 O_OD= -0.1642954E-11 O_TOT= -0.1240341E-11 <-- DLTA
 ------------------------------------------------------------------------------
 Cycle:     30
  WF centre and spread    1  (  0.000002, -0.000006,  0.000021 )     0.95724677
  WF centre and spread    2  (  0.000001,  1.413085, -0.000027 )     0.95331764
  WF centre and spread    3  (  0.000006,  1.413066,  3.325431 )     0.95331938
  WF centre and spread    4  (  1.223778,  0.706522,  3.325383 )     0.95714119
  Sum of centres and spreads (  1.223787,  3.532668,  6.650808 )     3.82102498
 
     30    -0.551E-09     0.0000105837        3.8210249633       7.26  <-- CONV
        O_D=      0.0199301 O_OD=      0.0064600 O_TOT=      3.8210250 <-- SPRD
 Delta: O_D=  0.4559889E-09 O_OD= -0.1007336E-08 O_TOT= -0.5513470E-09 <-- DLTA
 ------------------------------------------------------------------------------
 Cycle:     31
  WF centre and spread    1  (  0.000002, -0.000006,  0.000021 )     0.95724646
  WF centre and spread    2  (  0.000001,  1.413085, -0.000027 )     0.95331795
  WF centre and spread    3  (  0.000006,  1.413066,  3.325431 )     0.95331962
  WF centre and spread    4  (  1.223778,  0.706522,  3.325383 )     0.95714095
  Sum of centres and spreads (  1.223787,  3.532668,  6.650808 )     3.82102498
 
     31    -0.262E-09     0.0000129406        3.8210249631       7.27  <-- CONV
        O_D=      0.0199301 O_OD=      0.0064600 O_TOT=      3.8210250 <-- SPRD
 Delta: O_D=  0.3453949E-09 O_OD= -0.6069985E-09 O_TOT= -0.2616032E-09 <-- DLTA
 ------------------------------------------------------------------------------
 Cycle:     32
  WF centre and spread    1  (  0.000002, -0.000006,  0.000021 )     0.95724646
  WF centre and spread    2  (  0.000001,  1.413085, -0.000027 )     0.95331795
  WF centre and spread    3  (  0.000006,  1.413066,  3.325431 )     0.95331962
  WF centre and spread    4  (  1.223778,  0.706522,  3.325383 )     0.95714094
  Sum of centres and spreads (  1.223787,  3.532668,  6.650808 )     3.82102498
 
     32    -0.636E-12     0.0000089424        3.8210249631       7.28  <-- CONV
        O_D=      0.0199301 O_OD=      0.0064600 O_TOT=      3.8210250 <-- SPRD
 Delta: O_D=  0.9941076E-12 O_OD= -0.1629681E-11 O_TOT= -0.6359357E-12 <-- DLTA
 ------------------------------------------------------------------------------
 Cycle:     33
  WF centre and spread    1  (  0.000002, -0.000006,  0.000021 )     0.95724535
  WF centre and spread    2  (  0.000001,  1.413085, -0.000027 )     0.95331906
  WF centre and spread    3  (  0.000006,  1.413066,  3.325431 )     0.95332049
  WF centre and spread    4  (  1.223778,  0.706522,  3.325383 )     0.95714008
  Sum of centres and spreads (  1.223787,  3.532668,  6.650808 )     3.82102498
 
     33    -0.380E-09     0.0000089377        3.8210249627       7.29  <-- CONV
        O_D=      0.0199301 O_OD=      0.0064600 O_TOT=      3.8210250 <-- SPRD
 Delta: O_D=  0.9662287E-09 O_OD= -0.1346716E-08 O_TOT= -0.3804868E-09 <-- DLTA
 ------------------------------------------------------------------------------
 Cycle:     34
  WF centre and spread    1  (  0.000002, -0.000006,  0.000021 )     0.95724283
  WF centre and spread    2  (  0.000001,  1.413085, -0.000027 )     0.95332158
  WF centre and spread    3  (  0.000006,  1.413066,  3.325431 )     0.95332246
  WF centre and spread    4  (  1.223778,  0.706522,  3.325383 )     0.95713811
  Sum of centres and spreads (  1.223787,  3.532668,  6.650808 )     3.82102497
 
     34    -0.415E-09     0.0000138724        3.8210249623       7.31  <-- CONV
        O_D=      0.0199301 O_OD=      0.0064600 O_TOT=      3.8210250 <-- SPRD
 Delta: O_D=  0.1827295E-08 O_OD= -0.2241974E-08 O_TOT= -0.4146794E-09 <-- DLTA
 ------------------------------------------------------------------------------
 Cycle:     35
  WF centre and spread    1  (  0.000002, -0.000006,  0.000021 )     0.95724269
  WF centre and spread    2  (  0.000001,  1.413085, -0.000027 )     0.95332173
  WF centre and spread    3  (  0.000006,  1.413066,  3.325431 )     0.95332256
  WF centre and spread    4  (  1.223778,  0.706522,  3.325383 )     0.95713800
  Sum of centres and spreads (  1.223787,  3.532668,  6.650808 )     3.82102497
 
     35    -0.652E-09     0.0000244937        3.8210249616       7.32  <-- CONV
        O_D=      0.0199301 O_OD=      0.0064600 O_TOT=      3.8210250 <-- SPRD
 Delta: O_D= -0.4818260E-09 O_OD= -0.1706056E-09 O_TOT= -0.6524310E-09 <-- DLTA
 ------------------------------------------------------------------------------
 Cycle:     36
  WF centre and spread    1  (  0.000002, -0.000006,  0.000021 )     0.95724268
  WF centre and spread    2  (  0.000001,  1.413085, -0.000027 )     0.95332173
  WF centre and spread    3  (  0.000006,  1.413066,  3.325431 )     0.95332256
  WF centre and spread    4  (  1.223778,  0.706522,  3.325383 )     0.95713800
  Sum of centres and spreads (  1.223787,  3.532668,  6.650808 )     3.82102497
 
     36    -0.435E-12     0.0000072780        3.8210249616       7.33  <-- CONV
        O_D=      0.0199301 O_OD=      0.0064600 O_TOT=      3.8210250 <-- SPRD
 Delta: O_D= -0.6290107E-14 O_OD= -0.4286077E-12 O_TOT= -0.4347633E-12 <-- DLTA
 ------------------------------------------------------------------------------
 Cycle:     37
  WF centre and spread    1  (  0.000002, -0.000006,  0.000021 )     0.95724268
  WF centre and spread    2  (  0.000001,  1.413085, -0.000027 )     0.95332173
  WF centre and spread    3  (  0.000006,  1.413066,  3.325431 )     0.95332257
  WF centre and spread    4  (  1.223778,  0.706522,  3.325383 )     0.95713800
  Sum of centres and spreads (  1.223787,  3.532668,  6.650808 )     3.82102497
 
     37    -0.865E-12     0.0000072715        3.8210249616       7.34  <-- CONV
        O_D=      0.0199301 O_OD=      0.0064600 O_TOT=      3.8210250 <-- SPRD
 Delta: O_D=  0.6700196E-13 O_OD= -0.9315821E-12 O_TOT= -0.8650858E-12 <-- DLTA
 ------------------------------------------------------------------------------
 Cycle:     38
  WF centre and spread    1  (  0.000002, -0.000006,  0.000021 )     0.95724219
  WF centre and spread    2  (  0.000001,  1.413085, -0.000027 )     0.95332222
  WF centre and spread    3  (  0.000006,  1.413066,  3.325431 )     0.95332294
  WF centre and spread    4  (  1.223778,  0.706522,  3.325383 )     0.95713763
  Sum of centres and spreads (  1.223787,  3.532667,  6.650808 )     3.82102497
 
     38    -0.209E-09     0.0000072563        3.8210249614       7.36  <-- CONV
        O_D=      0.0199301 O_OD=      0.0064600 O_TOT=      3.8210250 <-- SPRD
 Delta: O_D=  0.1018801E-09 O_OD= -0.3104077E-09 O_TOT= -0.2085274E-09 <-- DLTA
 ------------------------------------------------------------------------------
 Cycle:     39
  WF centre and spread    1  (  0.000002, -0.000006,  0.000021 )     0.95724147
  WF centre and spread    2  (  0.000001,  1.413085, -0.000027 )     0.95332294
  WF centre and spread    3  (  0.000006,  1.413066,  3.325431 )     0.95332349
  WF centre and spread    4  (  1.223778,  0.706522,  3.325383 )     0.95713708
  Sum of centres and spreads (  1.223787,  3.532667,  6.650808 )     3.82102497
 
     39    -0.586E-10     0.0000077519        3.8210249614       7.37  <-- CONV
        O_D=      0.0199301 O_OD=      0.0064600 O_TOT=      3.8210250 <-- SPRD
 Delta: O_D=  0.2185224E-09 O_OD= -0.2771010E-09 O_TOT= -0.5857848E-10 <-- DLTA
 ------------------------------------------------------------------------------
 Cycle:     40
  WF centre and spread    1  (  0.000002, -0.000006,  0.000021 )     0.95724108
  WF centre and spread    2  (  0.000001,  1.413085, -0.000027 )     0.95332333
  WF centre and spread    3  (  0.000006,  1.413066,  3.325431 )     0.95332379
  WF centre and spread    4  (  1.223778,  0.706522,  3.325383 )     0.95713677
  Sum of centres and spreads (  1.223787,  3.532667,  6.650808 )     3.82102497
 
     40    -0.214E-10     0.0000122799        3.8210249613       7.38  <-- CONV
        O_D=      0.0199301 O_OD=      0.0064600 O_TOT=      3.8210250 <-- SPRD
 Delta: O_D=  0.1274160E-09 O_OD= -0.1487991E-09 O_TOT= -0.2138334E-10 <-- DLTA
 ------------------------------------------------------------------------------
 Cycle:     41
  WF centre and spread    1  (  0.000002, -0.000006,  0.000021 )     0.95724086
  WF centre and spread    2  (  0.000001,  1.413085, -0.000027 )     0.95332355
  WF centre and spread    3  (  0.000006,  1.413066,  3.325431 )     0.95332396
  WF centre and spread    4  (  1.223778,  0.706522,  3.325383 )     0.95713660
  Sum of centres and spreads (  1.223787,  3.532667,  6.650808 )     3.82102497
 
     41    -0.308E-09     0.0000132825        3.8210249610       7.40  <-- CONV
        O_D=      0.0199301 O_OD=      0.0064600 O_TOT=      3.8210250 <-- SPRD
 Delta: O_D= -0.2210077E-10 O_OD= -0.2861899E-09 O_TOT= -0.3082903E-09 <-- DLTA
 ------------------------------------------------------------------------------
 Cycle:     42
  WF centre and spread    1  (  0.000002, -0.000006,  0.000021 )     0.95724086
  WF centre and spread    2  (  0.000001,  1.413085, -0.000027 )     0.95332355
  WF centre and spread    3  (  0.000006,  1.413066,  3.325431 )     0.95332396
  WF centre and spread    4  (  1.223778,  0.706522,  3.325383 )     0.95713660
  Sum of centres and spreads (  1.223787,  3.532667,  6.650808 )     3.82102497
 
     42    -0.507E-12     0.0000080908        3.8210249610       7.41  <-- CONV
        O_D=      0.0199301 O_OD=      0.0064600 O_TOT=      3.8210250 <-- SPRD
 Delta: O_D=  0.2854661E-12 O_OD= -0.7920904E-12 O_TOT= -0.5071499E-12 <-- DLTA
 ------------------------------------------------------------------------------
 Cycle:     43
  WF centre and spread    1  (  0.000002, -0.000006,  0.000021 )     0.95724065
  WF centre and spread    2  (  0.000001,  1.413085, -0.000027 )     0.95332376
  WF centre and spread    3  (  0.000006,  1.413066,  3.325431 )     0.95332413
  WF centre and spread    4  (  1.223778,  0.706522,  3.325383 )     0.95713644
  Sum of centres and spreads (  1.223787,  3.532667,  6.650808 )     3.82102497
 
[...]
 Cycle:     77
  WF centre and spread    1  (  0.000002, -0.000006,  0.000021 )     0.95723900
  WF centre and spread    2  (  0.000001,  1.413085, -0.000027 )     0.95332541
  WF centre and spread    3  (  0.000006,  1.413066,  3.325431 )     0.95332540
  WF centre and spread    4  (  1.223778,  0.706522,  3.325383 )     0.95713516
  Sum of centres and spreads (  1.223787,  3.532667,  6.650808 )     3.82102497
 
     77    -0.166E-12     0.0000031876        3.8210249605       7.75  <-- CONV
        O_D=      0.0199301 O_OD=      0.0064600 O_TOT=      3.8210250 <-- SPRD
 Delta: O_D=  0.2427641E-12 O_OD= -0.4086401E-12 O_TOT= -0.1660894E-12 <-- DLTA
 ------------------------------------------------------------------------------
 Cycle:     78
  WF centre and spread    1  (  0.000002, -0.000006,  0.000021 )     0.95723900
  WF centre and spread    2  (  0.000001,  1.413085, -0.000027 )     0.95332541
  WF centre and spread    3  (  0.000006,  1.413066,  3.325431 )     0.95332540
  WF centre and spread    4  (  1.223778,  0.706522,  3.325383 )     0.95713516
  Sum of centres and spreads (  1.223787,  3.532667,  6.650808 )     3.82102497
 
     78    -0.248E-12     0.0000031871        3.8210249605       7.76  <-- CONV
        O_D=      0.0199301 O_OD=      0.0064600 O_TOT=      3.8210250 <-- SPRD
 Delta: O_D=  0.3641185E-12 O_OD= -0.6125300E-12 O_TOT= -0.2482459E-12 <-- DLTA
 ------------------------------------------------------------------------------
 Cycle:     79
  WF centre and spread    1  (  0.000002, -0.000006,  0.000021 )     0.95723900
  WF centre and spread    2  (  0.000001,  1.413085, -0.000027 )     0.95332541
  WF centre and spread    3  (  0.000006,  1.413066,  3.325431 )     0.95332540
  WF centre and spread    4  (  1.223778,  0.706522,  3.325383 )     0.95713516
  Sum of centres and spreads (  1.223787,  3.532667,  6.650808 )     3.82102497
 
     79    -0.331E-12     0.0000031863        3.8210249605       7.77  <-- CONV
        O_D=      0.0199301 O_OD=      0.0064600 O_TOT=      3.8210250 <-- SPRD
 Delta: O_D=  0.4851917E-12 O_OD= -0.8160894E-12 O_TOT= -0.3308465E-12 <-- DLTA
 ------------------------------------------------------------------------------
 Cycle:     80
  WF centre and spread    1  (  0.000002, -0.000006,  0.000021 )     0.95723900
  WF centre and spread    2  (  0.000001,  1.413085, -0.000027 )     0.95332541
  WF centre and spread    3  (  0.000006,  1.413066,  3.325431 )     0.95332540
  WF centre and spread    4  (  1.223778,  0.706522,  3.325383 )     0.95713516
  Sum of centres and spreads (  1.223787,  3.532667,  6.650808 )     3.82102497
 
     80    -0.414E-12     0.0000031854        3.8210249605       7.78  <-- CONV
        O_D=      0.0199301 O_OD=      0.0064600 O_TOT=      3.8210250 <-- SPRD
 Delta: O_D=  0.6055954E-12 O_OD= -0.1019405E-11 O_TOT= -0.4138911E-12 <-- DLTA
 ------------------------------------------------------------------------------
 Cycle:     81
  WF centre and spread    1  (  0.000002, -0.000006,  0.000021 )     0.95723900
  WF centre and spread    2  (  0.000001,  1.413085, -0.000027 )     0.95332541
  WF centre and spread    3  (  0.000006,  1.413066,  3.325431 )     0.95332540
  WF centre and spread    4  (  1.223778,  0.706522,  3.325383 )     0.95713516
  Sum of centres and spreads (  1.223787,  3.532667,  6.650808 )     3.82102497
 
     81    -0.496E-12     0.0000031841        3.8210249605       7.79  <-- CONV
        O_D=      0.0199301 O_OD=      0.0064600 O_TOT=      3.8210250 <-- SPRD
 Delta: O_D=  0.7259644E-12 O_OD= -0.1221681E-11 O_TOT= -0.4956036E-12 <-- DLTA
 ------------------------------------------------------------------------------
 Cycle:     82
  WF centre and spread    1  (  0.000002, -0.000006,  0.000021 )     0.95723900
  WF centre and spread    2  (  0.000001,  1.413085, -0.000027 )     0.95332541
  WF centre and spread    3  (  0.000006,  1.413066,  3.325431 )     0.95332540
  WF centre and spread    4  (  1.223778,  0.706522,  3.325383 )     0.95713516
  Sum of centres and spreads (  1.223787,  3.532667,  6.650808 )     3.82102497
 
     82    -0.826E-13     0.0000031827        3.8210249605       7.79  <-- CONV
        O_D=      0.0199301 O_OD=      0.0064600 O_TOT=      3.8210250 <-- SPRD
 Delta: O_D=  0.1203378E-12 O_OD= -0.2027840E-12 O_TOT= -0.8260059E-13 <-- DLTA
 ------------------------------------------------------------------------------
 Cycle:     83
  WF centre and spread    1  (  0.000002, -0.000006,  0.000021 )     0.95723900
  WF centre and spread    2  (  0.000001,  1.413085, -0.000027 )     0.95332541
  WF centre and spread    3  (  0.000006,  1.413066,  3.325431 )     0.95332541
  WF centre and spread    4  (  1.223778,  0.706522,  3.325383 )     0.95713516
  Sum of centres and spreads (  1.223787,  3.532667,  6.650808 )     3.82102497
 
     83    -0.165E-12     0.0000031825        3.8210249605       7.80  <-- CONV
        O_D=      0.0199301 O_OD=      0.0064600 O_TOT=      3.8210250 <-- SPRD
 Delta: O_D=  0.2405402E-12 O_OD= -0.4059461E-12 O_TOT= -0.1652012E-12 <-- DLTA
 ------------------------------------------------------------------------------
 Cycle:     84
  WF centre and spread    1  (  0.000002, -0.000006,  0.000021 )     0.95723899
  WF centre and spread    2  (  0.000001,  1.413085, -0.000027 )     0.95332542
  WF centre and spread    3  (  0.000006,  1.413066,  3.325431 )     0.95332541
  WF centre and spread    4  (  1.223778,  0.706522,  3.325383 )     0.95713516
  Sum of centres and spreads (  1.223787,  3.532667,  6.650808 )     3.82102497
 
     84    -0.248E-12     0.0000031820        3.8210249605       7.81  <-- CONV
        O_D=      0.0199301 O_OD=      0.0064600 O_TOT=      3.8210250 <-- SPRD
 Delta: O_D=  0.3607219E-12 O_OD= -0.6083311E-12 O_TOT= -0.2478018E-12 <-- DLTA
 ------------------------------------------------------------------------------
 Cycle:     85
  WF centre and spread    1  (  0.000002, -0.000006,  0.000021 )     0.95723899
  WF centre and spread    2  (  0.000001,  1.413085, -0.000027 )     0.95332542
  WF centre and spread    3  (  0.000006,  1.413066,  3.325431 )     0.95332541
  WF centre and spread    4  (  1.223778,  0.706522,  3.325383 )     0.95713516
  Sum of centres and spreads (  1.223787,  3.532667,  6.650808 )     3.82102497
 
     85    -0.330E-12     0.0000031813        3.8210249605       7.82  <-- CONV
        O_D=      0.0199301 O_OD=      0.0064600 O_TOT=      3.8210250 <-- SPRD
 Delta: O_D=  0.4807682E-12 O_OD= -0.8107230E-12 O_TOT= -0.3299583E-12 <-- DLTA
 ------------------------------------------------------------------------------
 Cycle:     86
  WF centre and spread    1  (  0.000002, -0.000006,  0.000021 )     0.95723899
  WF centre and spread    2  (  0.000001,  1.413085, -0.000027 )     0.95332542
  WF centre and spread    3  (  0.000006,  1.413066,  3.325431 )     0.95332541
  WF centre and spread    4  (  1.223778,  0.706522,  3.325383 )     0.95713516
  Sum of centres and spreads (  1.223787,  3.532667,  6.650808 )     3.82102497
 
     86    -0.413E-12     0.0000031803        3.8210249605       7.83  <-- CONV
        O_D=      0.0199301 O_OD=      0.0064600 O_TOT=      3.8210250 <-- SPRD
 Delta: O_D=  0.6000513E-12 O_OD= -0.1012533E-11 O_TOT= -0.4125589E-12 <-- DLTA
 ------------------------------------------------------------------------------
 Cycle:     87
  WF centre and spread    1  (  0.000002, -0.000006,  0.000021 )     0.95723899
  WF centre and spread    2  (  0.000001,  1.413085, -0.000027 )     0.95332542
  WF centre and spread    3  (  0.000006,  1.413066,  3.325431 )     0.95332541
  WF centre and spread    4  (  1.223778,  0.706522,  3.325383 )     0.95713515
  Sum of centres and spreads (  1.223787,  3.532667,  6.650808 )     3.82102497
 
     87    -0.494E-12     0.0000031792        3.8210249605       7.84  <-- CONV
        O_D=      0.0199301 O_OD=      0.0064600 O_TOT=      3.8210250 <-- SPRD
 Delta: O_D=  0.7193759E-12 O_OD= -0.1213496E-11 O_TOT= -0.4938272E-12 <-- DLTA
 ------------------------------------------------------------------------------
 Cycle:     88
  WF centre and spread    1  (  0.000002, -0.000006,  0.000021 )     0.95723899
  WF centre and spread    2  (  0.000001,  1.413085, -0.000027 )     0.95332542
  WF centre and spread    3  (  0.000006,  1.413066,  3.325431 )     0.95332541
  WF centre and spread    4  (  1.223778,  0.706522,  3.325383 )     0.95713515
  Sum of centres and spreads (  1.223787,  3.532667,  6.650808 )     3.82102497
 
     88    -0.826E-13     0.0000031778        3.8210249605       7.84  <-- CONV
        O_D=      0.0199301 O_OD=      0.0064600 O_TOT=      3.8210250 <-- SPRD
 Delta: O_D=  0.1192622E-12 O_OD= -0.2015185E-12 O_TOT= -0.8260059E-13 <-- DLTA
 ------------------------------------------------------------------------------
 Cycle:     89
  WF centre and spread    1  (  0.000002, -0.000006,  0.000021 )     0.95723899
  WF centre and spread    2  (  0.000001,  1.413085, -0.000027 )     0.95332542
  WF centre and spread    3  (  0.000006,  1.413066,  3.325431 )     0.95332541
  WF centre and spread    4  (  1.223778,  0.706522,  3.325383 )     0.95713515
  Sum of centres and spreads (  1.223787,  3.532667,  6.650808 )     3.82102497
 
     89    -0.165E-12     0.0000031776        3.8210249605       7.85  <-- CONV
        O_D=      0.0199301 O_OD=      0.0064600 O_TOT=      3.8210250 <-- SPRD
 Delta: O_D=  0.2383996E-12 O_OD= -0.4033440E-12 O_TOT= -0.1647571E-12 <-- DLTA
 ------------------------------------------------------------------------------
 Cycle:     90
  WF centre and spread    1  (  0.000002, -0.000006,  0.000021 )     0.95723899
  WF centre and spread    2  (  0.000001,  1.413085, -0.000027 )     0.95332542
  WF centre and spread    3  (  0.000006,  1.413066,  3.325431 )     0.95332541
  WF centre and spread    4  (  1.223778,  0.706522,  3.325383 )     0.95713515
  Sum of centres and spreads (  1.223787,  3.532667,  6.650808 )     3.82102497
 
     90    -0.247E-12     0.0000031771        3.8210249605       7.86  <-- CONV
        O_D=      0.0199301 O_OD=      0.0064600 O_TOT=      3.8210250 <-- SPRD
 Delta: O_D=  0.3575265E-12 O_OD= -0.6044583E-12 O_TOT= -0.2469136E-12 <-- DLTA
 ------------------------------------------------------------------------------
 Cycle:     91
  WF centre and spread    1  (  0.000002, -0.000006,  0.000021 )     0.95723899
  WF centre and spread    2  (  0.000001,  1.413085, -0.000027 )     0.95332542
  WF centre and spread    3  (  0.000006,  1.413066,  3.325431 )     0.95332541
  WF centre and spread    4  (  1.223778,  0.706522,  3.325383 )     0.95713515
  Sum of centres and spreads (  1.223787,  3.532667,  6.650808 )     3.82102497
 
     91    -0.329E-12     0.0000031764        3.8210249605       7.87  <-- CONV
        O_D=      0.0199301 O_OD=      0.0064600 O_TOT=      3.8210250 <-- SPRD
 Delta: O_D=  0.4764210E-12 O_OD= -0.8056646E-12 O_TOT= -0.3290701E-12 <-- DLTA
 ------------------------------------------------------------------------------
 Cycle:     92
  WF centre and spread    1  (  0.000002, -0.000006,  0.000021 )     0.95723898
  WF centre and spread    2  (  0.000001,  1.413085, -0.000027 )     0.95332543
  WF centre and spread    3  (  0.000006,  1.413066,  3.325431 )     0.95332541
  WF centre and spread    4  (  1.223778,  0.706522,  3.325383 )     0.95713515
  Sum of centres and spreads (  1.223787,  3.532667,  6.650808 )     3.82102497
 
     92    -0.411E-12     0.0000031755        3.8210249605       7.88  <-- CONV
        O_D=      0.0199301 O_OD=      0.0064600 O_TOT=      3.8210250 <-- SPRD
 Delta: O_D=  0.5949616E-12 O_OD= -0.1005883E-11 O_TOT= -0.4107825E-12 <-- DLTA
 ------------------------------------------------------------------------------
 Cycle:     93
  WF centre and spread    1  (  0.000002, -0.000006,  0.000021 )     0.95723898
  WF centre and spread    2  (  0.000001,  1.413085, -0.000027 )     0.95332543
  WF centre and spread    3  (  0.000006,  1.413066,  3.325431 )     0.95332542
  WF centre and spread    4  (  1.223778,  0.706522,  3.325383 )     0.95713515
  Sum of centres and spreads (  1.223787,  3.532667,  6.650808 )     3.82102497
 
     93    -0.493E-12     0.0000031744        3.8210249605       7.89  <-- CONV
        O_D=      0.0199301 O_OD=      0.0064600 O_TOT=      3.8210250 <-- SPRD
 Delta: O_D=  0.7130165E-12 O_OD= -0.1205803E-11 O_TOT= -0.4933831E-12 <-- DLTA
 ------------------------------------------------------------------------------
 Cycle:     94
  WF centre and spread    1  (  0.000002, -0.000006,  0.000021 )     0.95723898
  WF centre and spread    2  (  0.000001,  1.413085, -0.000027 )     0.95332543
  WF centre and spread    3  (  0.000006,  1.413066,  3.325431 )     0.95332542
  WF centre and spread    4  (  1.223778,  0.706522,  3.325383 )     0.95713515
  Sum of centres and spreads (  1.223787,  3.532667,  6.650808 )     3.82102497
 
     94    -0.822E-13     0.0000031731        3.8210249605       7.90  <-- CONV
        O_D=      0.0199301 O_OD=      0.0064600 O_TOT=      3.8210250 <-- SPRD
 Delta: O_D=  0.1182457E-12 O_OD= -0.2002348E-12 O_TOT= -0.8215650E-13 <-- DLTA
 ------------------------------------------------------------------------------
 Cycle:     95
  WF centre and spread    1  (  0.000002, -0.000006,  0.000021 )     0.95723898
  WF centre and spread    2  (  0.000001,  1.413085, -0.000027 )     0.95332543
  WF centre and spread    3  (  0.000006,  1.413066,  3.325431 )     0.95332542
  WF centre and spread    4  (  1.223778,  0.706522,  3.325383 )     0.95713515
  Sum of centres and spreads (  1.223787,  3.532667,  6.650808 )     3.82102497
 
     95    -0.164E-12     0.0000031729        3.8210249605       7.91  <-- CONV
        O_D=      0.0199301 O_OD=      0.0064600 O_TOT=      3.8210250 <-- SPRD
 Delta: O_D=  0.2365746E-12 O_OD= -0.4008235E-12 O_TOT= -0.1638689E-12 <-- DLTA
 ------------------------------------------------------------------------------
 Cycle:     96
  WF centre and spread    1  (  0.000002, -0.000006,  0.000021 )     0.95723898
  WF centre and spread    2  (  0.000001,  1.413085, -0.000027 )     0.95332543
  WF centre and spread    3  (  0.000006,  1.413066,  3.325431 )     0.95332542
  WF centre and spread    4  (  1.223778,  0.706522,  3.325383 )     0.95713515
  Sum of centres and spreads (  1.223787,  3.532667,  6.650808 )     3.82102497
 
     96    -0.246E-12     0.0000031725        3.8210249605       7.91  <-- CONV
        O_D=      0.0199301 O_OD=      0.0064600 O_TOT=      3.8210250 <-- SPRD
 Delta: O_D=  0.3543867E-12 O_OD= -0.6007035E-12 O_TOT= -0.2464695E-12 <-- DLTA
 ------------------------------------------------------------------------------
 Cycle:     97
  WF centre and spread    1  (  0.000002, -0.000006,  0.000021 )     0.95723898
  WF centre and spread    2  (  0.000001,  1.413085, -0.000027 )     0.95332543
  WF centre and spread    3  (  0.000006,  1.413066,  3.325431 )     0.95332542
  WF centre and spread    4  (  1.223778,  0.706522,  3.325383 )     0.95713514
  Sum of centres and spreads (  1.223787,  3.532667,  6.650808 )     3.82102497
 
     97    -0.328E-12     0.0000031718        3.8210249605       7.92  <-- CONV
        O_D=      0.0199301 O_OD=      0.0064600 O_TOT=      3.8210250 <-- SPRD
 Delta: O_D=  0.4726254E-12 O_OD= -0.8006052E-12 O_TOT= -0.3281819E-12 <-- DLTA
 ------------------------------------------------------------------------------
 Cycle:     98
  WF centre and spread    1  (  0.000002, -0.000006,  0.000021 )     0.95723898
  WF centre and spread    2  (  0.000001,  1.413085, -0.000027 )     0.95332543
  WF centre and spread    3  (  0.000006,  1.413066,  3.325431 )     0.95332542
  WF centre and spread    4  (  1.223778,  0.706522,  3.325383 )     0.95713514
  Sum of centres and spreads (  1.223787,  3.532667,  6.650808 )     3.82102497
 
     98    -0.410E-12     0.0000031709        3.8210249605       7.93  <-- CONV
        O_D=      0.0199301 O_OD=      0.0064600 O_TOT=      3.8210250 <-- SPRD
 Delta: O_D=  0.5897192E-12 O_OD= -0.9996830E-12 O_TOT= -0.4098943E-12 <-- DLTA
 ------------------------------------------------------------------------------
 Cycle:     99
  WF centre and spread    1  (  0.000002, -0.000006,  0.000021 )     0.95723897
  WF centre and spread    2  (  0.000001,  1.413085, -0.000027 )     0.95332544
  WF centre and spread    3  (  0.000006,  1.413066,  3.325431 )     0.95332542
  WF centre and spread    4  (  1.223778,  0.706522,  3.325383 )     0.95713514
  Sum of centres and spreads (  1.223787,  3.532667,  6.650808 )     3.82102497
 
     99    -0.491E-12     0.0000031699        3.8210249605       7.94  <-- CONV
        O_D=      0.0199301 O_OD=      0.0064600 O_TOT=      3.8210250 <-- SPRD
 Delta: O_D=  0.7071323E-12 O_OD= -0.1198474E-11 O_TOT= -0.4907186E-12 <-- DLTA
 ------------------------------------------------------------------------------
 Cycle:    100
  WF centre and spread    1  (  0.000002, -0.000006,  0.000021 )     0.95723897
  WF centre and spread    2  (  0.000001,  1.413085, -0.000027 )     0.95332544
  WF centre and spread    3  (  0.000006,  1.413066,  3.325431 )     0.95332542
  WF centre and spread    4  (  1.223778,  0.706522,  3.325383 )     0.95713514
  Sum of centres and spreads (  1.223787,  3.532667,  6.650808 )     3.82102497
 
    100    -0.822E-13     0.0000031686        3.8210249605       7.95  <-- CONV
        O_D=      0.0199301 O_OD=      0.0064600 O_TOT=      3.8210250 <-- SPRD
 Delta: O_D=  0.1172638E-12 O_OD= -0.1990569E-12 O_TOT= -0.8215650E-13 <-- DLTA
 ------------------------------------------------------------------------------

 Writing checkpoint file wannier90.chk... done

 Final State
  WF centre and spread    1  (  0.000002, -0.000006,  0.000021 )     0.95723897
  WF centre and spread    2  (  0.000001,  1.413085, -0.000027 )     0.95332544
  WF centre and spread    3  (  0.000006,  1.413066,  3.325431 )     0.95332542
  WF centre and spread    4  (  1.223778,  0.706522,  3.325383 )     0.95713514
  Sum of centres and spreads (  1.223787,  3.532667,  6.650808 )     3.82102497
 
         Spreads (Ang^2)       Omega I      =     3.794634926
        ================       Omega D      =     0.019930060
                               Omega OD     =     0.006459974
    Final Spread (Ang^2)       Omega Total  =     3.821024960
 ------------------------------------------------------------------------------
 Time for wannierise            1.136 (sec)

 Writing checkpoint file wannier90.chk... done

 *---------------------------------------------------------------------------*
 |                               PLOTTING                                    |
 *---------------------------------------------------------------------------*
 
 
 Calculating interpolated band-structure
 
 Time to calculate interpolated band structure       0.287 (sec)
 
 Time for plotting              0.438 (sec)
 Total Execution Time           9.820 (sec)

 *===========================================================================*
 |                             TIMING INFORMATION                            |
 *===========================================================================*
 |    Tag                                                Ncalls      Time (s)|
 |---------------------------------------------------------------------------|
 |kmesh: get                                        :         1         0.274|
 |overlap: allocate                                 :         1         0.000|
 |overlap: read                                     :         1         1.079|
 |dis: main                                         :         1         6.819|
 |wann: main                                        :         1         1.136|
 |plot: main                                        :         1         0.438|
 *---------------------------------------------------------------------------*
 
 All done: wannier90 exiting
