 
             +---------------------------------------------------+
             |                                                   |
             |                   WANNIER90                       |
             |                                                   |
             +---------------------------------------------------+
             |                                                   |
             |        Welcome to the Maximally-Localized         |
             |        Generalized Wannier Functions code         |
             |            http://www.wannier.org                 |
             |                                                   |
             |                                                   |
             |  Wannier90 Developer Group:                       |
             |    Giovanni Pizzi    (EPFL)                       |
             |    Valerio Vitale    (Cambridge)                  |
             |    David Vanderbilt  (Rutgers University)         |
             |    Nicola Marzari    (EPFL)                       |
             |    Ivo Souza         (Universidad del Pais Vasco) |
             |    Arash A. Mostofi  (Imperial College London)    |
             |    Jonathan R. Yates (University of Oxford)       |
             |                                                   |
             |  For the full list of Wannier90 3.x authors,      |
             |  please check the code documentation and the      |
             |  README on the GitHub page of the code            |
             |                                                   |
             |                                                   |
             |  Please cite                                      |
             |                                                   |
             |  [ref] "Wannier90 as a community code:            |
             |        new features and applications",            |
             |        G. Pizzi et al., J. Phys. Cond. Matt. 32,  |
             |        165902 (2020).                             |
             |        http://doi.org/10.1088/1361-648X/ab51ff    |
             |                                                   |
             |  in any publications arising from the use of      |
             |  this code. For the method please cite            |
             |                                                   |
             |  [ref] "Maximally Localized Generalised Wannier   |
             |         Functions for Composite Energy Bands"     |
             |         N. Marzari and D. Vanderbilt              |
             |         Phys. Rev. B 56 12847 (1997)              |
             |                                                   |
             |  [ref] "Maximally Localized Wannier Functions     |
             |         for Entangled Energy Bands"               |
             |         I. Souza, N. Marzari and D. Vanderbilt    |
             |         Phys. Rev. B 65 035109 (2001)             |
             |                                                   |
             |                                                   |
             | Copyright (c) 1996-2020                           |
             |        The Wannier90 Developer Group and          |
             |        individual contributors                    |
             |                                                   |
             |      Release: 3.1.0        5th March    2020      |
             |                                                   |
             | This program is free software; you can            |
             | redistribute it and/or modify it under the terms  |
             | of the GNU General Public License as published by |
             | the Free Software Foundation; either version 2 of |
             | the License, or (at your option) any later version|
             |                                                   |
             | This program is distributed in the hope that it   |
             | will be useful, but WITHOUT ANY WARRANTY; without |
             | even the implied warranty of MERCHANTABILITY or   |
             | FITNESS FOR A PARTICULAR PURPOSE. See the GNU     |
             | General Public License for more details.          |
             |                                                   |
             | You should have received a copy of the GNU General|
             | Public License along with this program; if not,   |
             | write to the Free Software Foundation, Inc.,      |
             | 675 Mass Ave, Cambridge, MA 02139, USA.           |
             |                                                   |
             +---------------------------------------------------+
             |    Execution started on  8Nov2021 at 22:31:46     |
             +---------------------------------------------------+
 
 ******************************************************************************
 * -> Using CODATA 2006 constant values                                       *
 *    (http://physics.nist.gov/cuu/Constants/index.html)                      *
 * -> Using Bohr value from CODATA                                            *
 ******************************************************************************
 

 Running in parallel on  24 CPUs

 
                                    ------
                                    SYSTEM
                                    ------
 
                              Lattice Vectors (Ang)
                    a_1     2.447260   0.000000   0.000000
                    a_2    -1.223630   2.119389   0.000000
                    a_3     0.000000   0.000000  19.999999
 
                   Unit Cell Volume:     103.73392  (Ang^3)
 
                        Reciprocal-Space Vectors (Ang^-1)
                    b_1     2.567436   1.482311   0.000000
                    b_2     0.000000   2.964621   0.000000
                    b_3     0.000000   0.000000   0.314159
  
 *----------------------------------------------------------------------------*
 |   Site       Fractional Coordinate          Cartesian Coordinate (Ang)     |
 +----------------------------------------------------------------------------+
 | C    1   0.00000   0.00000   0.50000   |    0.00000   0.00000  10.00000    |
 | C    2   0.66667   0.33333   0.50000   |    1.22363   0.70646  10.00000    |
 *----------------------------------------------------------------------------*
                                ------------
                                K-POINT GRID
                                ------------
  
             Grid size = 15 x 15 x  1      Total points =  225
  
  
 *---------------------------------- MAIN ------------------------------------*
 |  Number of Wannier Functions               :                 5             |
 |  Number of Objective Wannier Functions     :                 5             |
 |  Number of input Bloch states              :                16             |
 |  Output verbosity (1=low, 5=high)          :                 1             |
 |  Timing Level (1=low, 5=high)              :                 1             |
 |  Optimisation (0=memory, 3=speed)          :                 3             |
 |  Length Unit                               :               Ang             |
 |  Post-processing setup (write *.nnkp)      :                 F             |
 |  Using Gamma-only branch of algorithms     :                 F             |
 *----------------------------------------------------------------------------*
 *------------------------------- WANNIERISE ---------------------------------*
 |  Total number of iterations                :               200             |
 |  Number of CG steps before reset           :                 5             |
 |  Trial step length for line search         :             2.000             |
 |  Convergence tolerence                     :         0.100E-09             |
 |  Convergence window                        :                -1             |
 |  Iterations between writing output         :                 1             |
 |  Iterations between backing up to disk     :               100             |
 |  Write r^2_nm to file                      :                 F             |
 |  Write xyz WF centres to file              :                 T             |
 |  Write on-site energies <0n|H|0n> to file  :                 T             |
 |  Use guiding centre to control phases      :                 F             |
 |  Use phases for initial projections        :                 F             |
 *----------------------------------------------------------------------------*
 *------------------------------- DISENTANGLE --------------------------------*
 |  Using band disentanglement                :                 T             |
 |  Total number of iterations                :             10000             |
 |  Mixing ratio                              :             0.500             |
 |  Convergence tolerence                     :         1.000E-10             |
 |  Convergence window                        :                 3             |
 *----------------------------------------------------------------------------*
 *-------------------------------- PLOTTING ----------------------------------*
 |  Plotting interpolated bandstructure       :                 T             |
 |   Number of K-path sections                :                 3             |
 |   Divisions along first K-path section     :               100             |
 |   Output format                            :           gnuplot             |
 |   Output mode                              :               s-k             |
 *----------------------------------------------------------------------------*
 |   K-space path sections:                                                   |
 |    From: G       0.000  0.000  0.000     To: K       0.333  0.333  0.000   |
 |    From: K       0.333  0.333  0.000     To: M       0.500  0.000  0.000   |
 |    From: M       0.500  0.000  0.000     To: G       0.000  0.000  0.000   |
 *----------------------------------------------------------------------------*
 |  Plotting Hamiltonian in WF basis          :                 T             |
 *----------------------------------------------------------------------------*
 Time to read parameters        0.037 (sec)

 *---------------------------------- K-MESH ----------------------------------*
 +----------------------------------------------------------------------------+
 |                    Distance to Nearest-Neighbour Shells                    |
 |                    ------------------------------------                    |
 |          Shell             Distance (Ang^-1)          Multiplicity         |
 |          -----             -----------------          ------------         |
 |             1                   0.197641                      6            |
 |             2                   0.314159                      2            |
 |             3                   0.342325                      6            |
 |             4                   0.371158                     12            |
 |             5                   0.395283                      6            |
 |             6                   0.464632                     12            |
 |             7                   0.504920                     12            |
 |             8                   0.522910                     12            |
 |             9                   0.592924                      6            |
 |            10                   0.610025                     24            |
 |            11                   0.628319                      2            |
 |            12                   0.658670                     12            |
 |            13                   0.671011                     12            |
 |            14                   0.684650                      6            |
 |            15                   0.712606                     12            |
 |            16                   0.715521                     12            |
 |            17                   0.742316                     12            |
 |            18                   0.753287                     12            |
 |            19                   0.778784                     24            |
 |            20                   0.790566                      6            |
 |            21                   0.817447                     24            |
 |            22                   0.850700                     12            |
 |            23                   0.861499                     12            |
 |            24                   0.863912                     12            |
 |            25                   0.905707                     12            |
 |            26                   0.916993                     24            |
 |            27                   0.929263                     12            |
 |            28                   0.942478                      2            |
 |            29                   0.950048                     24            |
 |            30                   0.958645                     24            |
 |            31                   0.962978                     12            |
 |            32                   0.988207                      6            |
 |            33                   1.002722                     12            |
 |            34                   1.009841                     12            |
 |            35                   1.022014                     12            |
 |            36                   1.026975                      6            |
 +----------------------------------------------------------------------------+
 | The b-vectors are chosen automatically                                     |
 | The following shells are used:   1,  2                                     |
 +----------------------------------------------------------------------------+
 |                        Shell   # Nearest-Neighbours                        |
 |                        -----   --------------------                        |
 |                          1               6                                 |
 |                          2               2                                 |
 +----------------------------------------------------------------------------+
 | Completeness relation is fully satisfied [Eq. (B1), PRB 56, 12847 (1997)]  |
 +----------------------------------------------------------------------------+
 |                  b_k Vectors (Ang^-1) and Weights (Ang^2)                  |
 |                  ----------------------------------------                  |
 |            No.         b_k(x)      b_k(y)      b_k(z)        w_b           |
 |            ---        --------------------------------     --------        |
 |             1         0.000000    0.197641    0.000000     8.533416        |
 |             2         0.171162    0.098821    0.000000     8.533416        |
 |             3        -0.171162   -0.098821    0.000000     8.533416        |
 |             4        -0.171162    0.098821    0.000000     8.533416        |
 |             5         0.000000   -0.197641    0.000000     8.533416        |
 |             6         0.171162   -0.098821    0.000000     8.533416        |
 |             7         0.000000    0.000000    0.314159     5.066058        |
 |             8         0.000000    0.000000   -0.314159     5.066058        |
 +----------------------------------------------------------------------------+
 |                           b_k Directions (Ang^-1)                          |
 |                           -----------------------                          |
 |            No.           x           y           z                         |
 |            ---        --------------------------------                     |
 |             1         0.000000    0.197641    0.000000                     |
 |             2         0.171162    0.098821    0.000000                     |
 |             3        -0.171162    0.098821    0.000000                     |
 |             4         0.000000    0.000000    0.314159                     |
 +----------------------------------------------------------------------------+
  
 Time to get kmesh              0.172 (sec)
 *============================================================================*
 |                              MEMORY ESTIMATE                               |
 |         Maximum RAM allocated during each phase of the calculation         |
 *============================================================================*
 |                        Disentanglement            9.61 Mb                  |
 |                            Wannierise:            2.45 Mb                  |
 |                          plot_wannier:            2.45 Mb                  |
 *----------------------------------------------------------------------------*
  
 Starting a new Wannier90 calculation ...


 Reading overlaps from graphene.mmn    :  Created on  8Nov2021 at 22:31:40

 Reading projections from graphene.amn :  Created on  8Nov2021 at 22:31:34

 Time to read overlaps          0.515 (sec)

 *------------------------------- DISENTANGLE --------------------------------*
 +----------------------------------------------------------------------------+
 |                              Energy  Windows                               |
 |                              ---------------                               |
 |                   Outer:  -23.97958  to    7.50000  (eV)                   |
 |                   No frozen states were specified                          |
 +----------------------------------------------------------------------------+
   Number of target bands to extract:    5

                   Unitarised projection of Wannier functions                  
                   ------------------------------------------                  
   A_mn = <psi_m|g_n> --> S = A.A^+ --> U = S^-1/2.A
   In dis_project... done
   No inner window (linner = F)

                   Extraction of optimally-connected subspace                  
                   ------------------------------------------                  
 +---------------------------------------------------------------------+<-- DIS
 |  Iter     Omega_I(i-1)      Omega_I(i)      Delta (frac.)    Time   |<-- DIS
 +---------------------------------------------------------------------+<-- DIS
       1       3.21760015       3.11362472       3.339E-02      0.00    <-- DIS
       2       3.16204864       3.08746530       2.416E-02      0.00    <-- DIS
       3       3.12221697       3.06849333       1.751E-02      0.00    <-- DIS
       4       3.09342006       3.05387887       1.295E-02      0.00    <-- DIS
       5       3.07210880       3.04214391       9.850E-03      0.00    <-- DIS
       6       3.05585727       3.03241143       7.732E-03      0.00    <-- DIS
       7       3.04306023       3.02412858       6.260E-03      0.00    <-- DIS
       8       3.03266531       3.01693235       5.215E-03      0.01    <-- DIS
       9       3.02398111       3.01057629       4.453E-03      0.01    <-- DIS
      10       3.01654896       3.00488796       3.881E-03      0.01    <-- DIS
      11       3.01005999       2.99974342       3.439E-03      0.01    <-- DIS
      12       3.00430224       2.99505120       3.089E-03      0.01    <-- DIS
      13       2.99912704       2.99074224       2.804E-03      0.01    <-- DIS
      14       2.99442766       2.98676315       2.566E-03      0.01    <-- DIS
      15       2.99012558       2.98307188       2.365E-03      0.01    <-- DIS
      16       2.98616160       2.97963461       2.191E-03      0.01    <-- DIS
      17       2.98249005       2.97642370       2.038E-03      0.01    <-- DIS
      18       2.97907491       2.97341621       1.903E-03      0.01    <-- DIS
      19       2.97588715       2.97059281       1.782E-03      0.01    <-- DIS
      20       2.97290300       2.96793702       1.673E-03      0.01    <-- DIS
      21       2.97010262       2.96543463       1.574E-03      0.02    <-- DIS
      22       2.96746923       2.96307328       1.484E-03      0.02    <-- DIS
      23       2.96498845       2.96084210       1.400E-03      0.02    <-- DIS
      24       2.96264782       2.95873147       1.324E-03      0.02    <-- DIS
      25       2.96043644       2.95673281       1.253E-03      0.02    <-- DIS
      26       2.95834468       2.95483843       1.187E-03      0.02    <-- DIS
      27       2.95636399       2.95304140       1.125E-03      0.02    <-- DIS
      28       2.95448669       2.95133543       1.068E-03      0.02    <-- DIS
      29       2.95270590       2.94971481       1.014E-03      0.02    <-- DIS
      30       2.95101537       2.94817431       9.637E-04      0.02    <-- DIS
      31       2.94940941       2.94670914       9.164E-04      0.02    <-- DIS
      32       2.94788284       2.94531489       8.719E-04      0.02    <-- DIS
      33       2.94643092       2.94398750       8.300E-04      0.02    <-- DIS
      34       2.94504926       2.94272320       7.904E-04      0.03    <-- DIS
      35       2.94373383       2.94151851       7.531E-04      0.03    <-- DIS
      36       2.94248092       2.94037019       7.178E-04      0.03    <-- DIS
      37       2.94128706       2.93927521       6.845E-04      0.03    <-- DIS
      38       2.94014904       2.93823076       6.529E-04      0.03    <-- DIS
      39       2.93906388       2.93723421       6.229E-04      0.03    <-- DIS
      40       2.93802877       2.93628309       5.945E-04      0.03    <-- DIS
      41       2.93704112       2.93537509       5.676E-04      0.03    <-- DIS
      42       2.93609848       2.93450805       5.420E-04      0.03    <-- DIS
      43       2.93519856       2.93367992       5.177E-04      0.03    <-- DIS
      44       2.93433922       2.93288879       4.945E-04      0.03    <-- DIS
      45       2.93351844       2.93213284       4.726E-04      0.03    <-- DIS
      46       2.93273431       2.93141038       4.516E-04      0.03    <-- DIS
      47       2.93198505       2.93071980       4.317E-04      0.03    <-- DIS
      48       2.93126897       2.93005957       4.128E-04      0.03    <-- DIS
      49       2.93058448       2.92942827       3.947E-04      0.04    <-- DIS
      50       2.92993006       2.92882452       3.775E-04      0.04    <-- DIS
      51       2.92930431       2.92824705       3.611E-04      0.04    <-- DIS
      52       2.92870586       2.92769464       3.454E-04      0.04    <-- DIS
      53       2.92813346       2.92716612       3.305E-04      0.04    <-- DIS
      54       2.92758588       2.92666041       3.162E-04      0.04    <-- DIS
      55       2.92706199       2.92617646       3.026E-04      0.04    <-- DIS
      56       2.92656069       2.92571328       2.896E-04      0.04    <-- DIS
      57       2.92608096       2.92526994       2.772E-04      0.04    <-- DIS
      58       2.92562182       2.92484554       2.654E-04      0.04    <-- DIS
      59       2.92518234       2.92443923       2.541E-04      0.04    <-- DIS
      60       2.92476163       2.92405021       2.433E-04      0.04    <-- DIS
      61       2.92435886       2.92367772       2.330E-04      0.04    <-- DIS
      62       2.92397321       2.92332100       2.231E-04      0.04    <-- DIS
      63       2.92360395       2.92297938       2.137E-04      0.05    <-- DIS
      64       2.92325033       2.92265219       2.047E-04      0.05    <-- DIS
      65       2.92291166       2.92233880       1.960E-04      0.05    <-- DIS
      66       2.92258730       2.92203859       1.878E-04      0.05    <-- DIS
      67       2.92227661       2.92175101       1.799E-04      0.05    <-- DIS
      68       2.92197901       2.92147550       1.723E-04      0.05    <-- DIS
      69       2.92169390       2.92121154       1.651E-04      0.05    <-- DIS
      70       2.92142077       2.92095862       1.582E-04      0.05    <-- DIS
      71       2.92115908       2.92071628       1.516E-04      0.05    <-- DIS
      72       2.92090835       2.92048406       1.453E-04      0.05    <-- DIS
      73       2.92066809       2.92026153       1.392E-04      0.05    <-- DIS
      74       2.92043787       2.92004827       1.334E-04      0.05    <-- DIS
      75       2.92021725       2.91984388       1.279E-04      0.05    <-- DIS
      76       2.92000582       2.91964799       1.226E-04      0.05    <-- DIS
      77       2.91980319       2.91946024       1.175E-04      0.05    <-- DIS
      78       2.91960898       2.91928028       1.126E-04      0.06    <-- DIS
      79       2.91942284       2.91910778       1.079E-04      0.06    <-- DIS
      80       2.91924442       2.91894242       1.035E-04      0.06    <-- DIS
      81       2.91907340       2.91878391       9.918E-05      0.06    <-- DIS
      82       2.91890946       2.91863195       9.508E-05      0.06    <-- DIS
      83       2.91875231       2.91848628       9.115E-05      0.06    <-- DIS
      84       2.91860165       2.91834662       8.739E-05      0.06    <-- DIS
      85       2.91845722       2.91821272       8.378E-05      0.06    <-- DIS
      86       2.91831876       2.91808435       8.033E-05      0.06    <-- DIS
      87       2.91818600       2.91796126       7.702E-05      0.06    <-- DIS
      88       2.91805873       2.91784325       7.385E-05      0.06    <-- DIS
      89       2.91793669       2.91773009       7.081E-05      0.06    <-- DIS
      90       2.91781969       2.91762159       6.790E-05      0.06    <-- DIS
      91       2.91770749       2.91751755       6.511E-05      0.06    <-- DIS
      92       2.91759992       2.91741778       6.243E-05      0.07    <-- DIS
      93       2.91749677       2.91732211       5.987E-05      0.07    <-- DIS
      94       2.91739785       2.91723038       5.741E-05      0.07    <-- DIS
      95       2.91730300       2.91714240       5.505E-05      0.07    <-- DIS
      96       2.91721205       2.91705804       5.280E-05      0.07    <-- DIS
      97       2.91712482       2.91697713       5.063E-05      0.07    <-- DIS
      98       2.91704117       2.91689954       4.856E-05      0.07    <-- DIS
      99       2.91696096       2.91682513       4.657E-05      0.07    <-- DIS
     100       2.91688403       2.91675376       4.466E-05      0.07    <-- DIS
     101       2.91681025       2.91668532       4.283E-05      0.07    <-- DIS
     102       2.91673950       2.91661968       4.108E-05      0.07    <-- DIS
     103       2.91667164       2.91655672       3.940E-05      0.07    <-- DIS
     104       2.91660655       2.91649634       3.779E-05      0.07    <-- DIS
     105       2.91654413       2.91643843       3.624E-05      0.07    <-- DIS
     106       2.91648427       2.91638289       3.476E-05      0.07    <-- DIS
     107       2.91642685       2.91632961       3.334E-05      0.08    <-- DIS
     108       2.91637178       2.91627852       3.198E-05      0.08    <-- DIS
     109       2.91631896       2.91622951       3.067E-05      0.08    <-- DIS
     110       2.91626829       2.91618250       2.942E-05      0.08    <-- DIS
     111       2.91621970       2.91613741       2.822E-05      0.08    <-- DIS
     112       2.91617309       2.91609416       2.707E-05      0.08    <-- DIS
     113       2.91612839       2.91605267       2.596E-05      0.08    <-- DIS
     114       2.91608550       2.91601288       2.490E-05      0.08    <-- DIS
     115       2.91604437       2.91597471       2.389E-05      0.08    <-- DIS
     116       2.91600492       2.91593810       2.291E-05      0.08    <-- DIS
     117       2.91596707       2.91590298       2.198E-05      0.08    <-- DIS
     118       2.91593077       2.91586930       2.108E-05      0.08    <-- DIS
     119       2.91589595       2.91583698       2.022E-05      0.08    <-- DIS
     120       2.91586255       2.91580598       1.940E-05      0.08    <-- DIS
     121       2.91583051       2.91577625       1.861E-05      0.08    <-- DIS
     122       2.91579978       2.91574773       1.785E-05      0.09    <-- DIS
     123       2.91577030       2.91572037       1.712E-05      0.09    <-- DIS
     124       2.91574202       2.91569412       1.643E-05      0.09    <-- DIS
     125       2.91571489       2.91566895       1.576E-05      0.09    <-- DIS
     126       2.91568887       2.91564480       1.512E-05      0.09    <-- DIS
     127       2.91566391       2.91562163       1.450E-05      0.09    <-- DIS
     128       2.91563996       2.91559940       1.391E-05      0.09    <-- DIS
     129       2.91561699       2.91557809       1.334E-05      0.09    <-- DIS
     130       2.91559495       2.91555763       1.280E-05      0.09    <-- DIS
     131       2.91557382       2.91553801       1.228E-05      0.09    <-- DIS
     132       2.91555354       2.91551919       1.178E-05      0.09    <-- DIS
     133       2.91553409       2.91550114       1.130E-05      0.09    <-- DIS
     134       2.91551543       2.91548382       1.084E-05      0.09    <-- DIS
     135       2.91549752       2.91546720       1.040E-05      0.09    <-- DIS
     136       2.91548035       2.91545127       9.976E-06      0.09    <-- DIS
     137       2.91546388       2.91543597       9.571E-06      0.10    <-- DIS
     138       2.91544807       2.91542131       9.181E-06      0.10    <-- DIS
     139       2.91543291       2.91540723       8.808E-06      0.10    <-- DIS
     140       2.91541837       2.91539374       8.449E-06      0.10    <-- DIS
     141       2.91540442       2.91538079       8.106E-06      0.10    <-- DIS
     142       2.91539103       2.91536836       7.776E-06      0.10    <-- DIS
     143       2.91537819       2.91535644       7.460E-06      0.10    <-- DIS
     144       2.91536587       2.91534501       7.156E-06      0.10    <-- DIS
     145       2.91535406       2.91533404       6.865E-06      0.10    <-- DIS
     146       2.91534272       2.91532352       6.586E-06      0.10    <-- DIS
     147       2.91533184       2.91531342       6.318E-06      0.10    <-- DIS
     148       2.91532141       2.91530374       6.062E-06      0.10    <-- DIS
     149       2.91531140       2.91529445       5.815E-06      0.10    <-- DIS
     150       2.91530180       2.91528554       5.579E-06      0.10    <-- DIS
     151       2.91529259       2.91527699       5.352E-06      0.11    <-- DIS
     152       2.91528375       2.91526878       5.134E-06      0.11    <-- DIS
     153       2.91527527       2.91526091       4.926E-06      0.11    <-- DIS
     154       2.91526714       2.91525336       4.725E-06      0.11    <-- DIS
     155       2.91525934       2.91524612       4.533E-06      0.11    <-- DIS
     156       2.91525185       2.91523917       4.349E-06      0.11    <-- DIS
     157       2.91524467       2.91523251       4.172E-06      0.11    <-- DIS
     158       2.91523778       2.91522611       4.003E-06      0.11    <-- DIS
     159       2.91523117       2.91521998       3.840E-06      0.11    <-- DIS
     160       2.91522483       2.91521409       3.684E-06      0.11    <-- DIS
     161       2.91521875       2.91520845       3.534E-06      0.11    <-- DIS
     162       2.91521291       2.91520303       3.391E-06      0.11    <-- DIS
     163       2.91520732       2.91519783       3.253E-06      0.11    <-- DIS
     164       2.91520194       2.91519285       3.121E-06      0.11    <-- DIS
     165       2.91519679       2.91518806       2.994E-06      0.11    <-- DIS
     166       2.91519185       2.91518348       2.872E-06      0.12    <-- DIS
     167       2.91518711       2.91517907       2.755E-06      0.12    <-- DIS
     168       2.91518256       2.91517485       2.643E-06      0.12    <-- DIS
     169       2.91517819       2.91517080       2.536E-06      0.12    <-- DIS
     170       2.91517401       2.91516691       2.433E-06      0.12    <-- DIS
     171       2.91516999       2.91516318       2.334E-06      0.12    <-- DIS
     172       2.91516613       2.91515961       2.239E-06      0.12    <-- DIS
     173       2.91516244       2.91515617       2.148E-06      0.12    <-- DIS
     174       2.91515889       2.91515288       2.061E-06      0.12    <-- DIS
     175       2.91515549       2.91514972       1.977E-06      0.12    <-- DIS
     176       2.91515222       2.91514669       1.897E-06      0.12    <-- DIS
     177       2.91514909       2.91514379       1.820E-06      0.12    <-- DIS
     178       2.91514609       2.91514100       1.746E-06      0.12    <-- DIS
     179       2.91514320       2.91513832       1.675E-06      0.12    <-- DIS
     180       2.91514044       2.91513575       1.607E-06      0.12    <-- DIS
     181       2.91513778       2.91513329       1.542E-06      0.13    <-- DIS
     182       2.91513524       2.91513093       1.479E-06      0.13    <-- DIS
     183       2.91513280       2.91512866       1.419E-06      0.13    <-- DIS
     184       2.91513045       2.91512649       1.361E-06      0.13    <-- DIS
     185       2.91512821       2.91512440       1.306E-06      0.13    <-- DIS
     186       2.91512605       2.91512240       1.253E-06      0.13    <-- DIS
     187       2.91512398       2.91512048       1.202E-06      0.13    <-- DIS
     188       2.91512200       2.91511864       1.153E-06      0.13    <-- DIS
     189       2.91512009       2.91511687       1.106E-06      0.13    <-- DIS
     190       2.91511827       2.91511517       1.061E-06      0.13    <-- DIS
     191       2.91511652       2.91511355       1.018E-06      0.13    <-- DIS
     192       2.91511483       2.91511199       9.768E-07      0.13    <-- DIS
     193       2.91511322       2.91511049       9.371E-07      0.13    <-- DIS
     194       2.91511167       2.91510905       8.991E-07      0.13    <-- DIS
     195       2.91511019       2.91510767       8.625E-07      0.13    <-- DIS
     196       2.91510877       2.91510635       8.275E-07      0.14    <-- DIS
     197       2.91510740       2.91510508       7.939E-07      0.14    <-- DIS
     198       2.91510609       2.91510387       7.616E-07      0.14    <-- DIS
     199       2.91510483       2.91510270       7.307E-07      0.14    <-- DIS
     200       2.91510362       2.91510158       7.010E-07      0.14    <-- DIS
     201       2.91510247       2.91510051       6.725E-07      0.14    <-- DIS
     202       2.91510136       2.91509948       6.452E-07      0.14    <-- DIS
     203       2.91510029       2.91509849       6.190E-07      0.14    <-- DIS
     204       2.91509927       2.91509754       5.938E-07      0.14    <-- DIS
     205       2.91509829       2.91509663       5.697E-07      0.14    <-- DIS
     206       2.91509735       2.91509575       5.466E-07      0.14    <-- DIS
     207       2.91509645       2.91509492       5.244E-07      0.14    <-- DIS
     208       2.91509558       2.91509411       5.031E-07      0.14    <-- DIS
     209       2.91509475       2.91509334       4.826E-07      0.14    <-- DIS
     210       2.91509395       2.91509260       4.630E-07      0.14    <-- DIS
     211       2.91509319       2.91509189       4.442E-07      0.15    <-- DIS
     212       2.91509245       2.91509121       4.262E-07      0.15    <-- DIS
     213       2.91509175       2.91509056       4.088E-07      0.15    <-- DIS
     214       2.91509108       2.91508993       3.922E-07      0.15    <-- DIS
     215       2.91509043       2.91508933       3.763E-07      0.15    <-- DIS
     216       2.91508981       2.91508875       3.610E-07      0.15    <-- DIS
     217       2.91508921       2.91508820       3.464E-07      0.15    <-- DIS
     218       2.91508864       2.91508767       3.323E-07      0.15    <-- DIS
     219       2.91508809       2.91508716       3.188E-07      0.15    <-- DIS
     220       2.91508756       2.91508667       3.058E-07      0.15    <-- DIS
     221       2.91508706       2.91508620       2.934E-07      0.15    <-- DIS
     222       2.91508657       2.91508575       2.815E-07      0.15    <-- DIS
     223       2.91508611       2.91508532       2.701E-07      0.15    <-- DIS
     224       2.91508566       2.91508491       2.591E-07      0.15    <-- DIS
     225       2.91508524       2.91508451       2.486E-07      0.16    <-- DIS
     226       2.91508483       2.91508413       2.385E-07      0.16    <-- DIS
     227       2.91508443       2.91508376       2.288E-07      0.16    <-- DIS
     228       2.91508405       2.91508341       2.195E-07      0.16    <-- DIS
     229       2.91508369       2.91508308       2.106E-07      0.16    <-- DIS
     230       2.91508334       2.91508275       2.020E-07      0.16    <-- DIS
     231       2.91508301       2.91508245       1.938E-07      0.16    <-- DIS
     232       2.91508269       2.91508215       1.859E-07      0.16    <-- DIS
     233       2.91508238       2.91508186       1.784E-07      0.16    <-- DIS
     234       2.91508209       2.91508159       1.711E-07      0.16    <-- DIS
     235       2.91508181       2.91508133       1.642E-07      0.16    <-- DIS
     236       2.91508154       2.91508108       1.575E-07      0.16    <-- DIS
     237       2.91508127       2.91508083       1.511E-07      0.16    <-- DIS
     238       2.91508103       2.91508060       1.450E-07      0.16    <-- DIS
     239       2.91508079       2.91508038       1.391E-07      0.16    <-- DIS
     240       2.91508056       2.91508017       1.334E-07      0.17    <-- DIS
     241       2.91508034       2.91507996       1.280E-07      0.17    <-- DIS
     242       2.91508012       2.91507977       1.228E-07      0.17    <-- DIS
     243       2.91507992       2.91507958       1.178E-07      0.17    <-- DIS
     244       2.91507973       2.91507940       1.130E-07      0.17    <-- DIS
     245       2.91507954       2.91507922       1.085E-07      0.17    <-- DIS
     246       2.91507936       2.91507906       1.040E-07      0.17    <-- DIS
     247       2.91507919       2.91507890       9.982E-08      0.17    <-- DIS
     248       2.91507903       2.91507875       9.577E-08      0.17    <-- DIS
     249       2.91507887       2.91507860       9.188E-08      0.17    <-- DIS
     250       2.91507872       2.91507846       8.814E-08      0.17    <-- DIS
     251       2.91507857       2.91507832       8.456E-08      0.17    <-- DIS
     252       2.91507843       2.91507819       8.113E-08      0.17    <-- DIS
     253       2.91507830       2.91507807       7.783E-08      0.17    <-- DIS
     254       2.91507817       2.91507795       7.467E-08      0.17    <-- DIS
     255       2.91507804       2.91507784       7.164E-08      0.18    <-- DIS
     256       2.91507793       2.91507773       6.873E-08      0.18    <-- DIS
     257       2.91507781       2.91507762       6.594E-08      0.18    <-- DIS
     258       2.91507770       2.91507752       6.326E-08      0.18    <-- DIS
     259       2.91507760       2.91507742       6.069E-08      0.18    <-- DIS
     260       2.91507750       2.91507733       5.823E-08      0.18    <-- DIS
     261       2.91507740       2.91507724       5.586E-08      0.18    <-- DIS
     262       2.91507731       2.91507715       5.359E-08      0.18    <-- DIS
     263       2.91507722       2.91507707       5.141E-08      0.18    <-- DIS
     264       2.91507714       2.91507699       4.933E-08      0.18    <-- DIS
     265       2.91507706       2.91507692       4.732E-08      0.18    <-- DIS
     266       2.91507698       2.91507685       4.540E-08      0.18    <-- DIS
     267       2.91507690       2.91507678       4.356E-08      0.18    <-- DIS
     268       2.91507683       2.91507671       4.179E-08      0.18    <-- DIS
     269       2.91507676       2.91507664       4.009E-08      0.18    <-- DIS
     270       2.91507670       2.91507658       3.846E-08      0.19    <-- DIS
     271       2.91507663       2.91507652       3.690E-08      0.19    <-- DIS
     272       2.91507657       2.91507647       3.540E-08      0.19    <-- DIS
     273       2.91507651       2.91507641       3.396E-08      0.19    <-- DIS
     274       2.91507646       2.91507636       3.258E-08      0.19    <-- DIS
     275       2.91507640       2.91507631       3.126E-08      0.19    <-- DIS
     276       2.91507635       2.91507626       2.999E-08      0.19    <-- DIS
     277       2.91507630       2.91507622       2.877E-08      0.19    <-- DIS
     278       2.91507625       2.91507617       2.760E-08      0.19    <-- DIS
     279       2.91507621       2.91507613       2.648E-08      0.19    <-- DIS
     280       2.91507616       2.91507609       2.541E-08      0.19    <-- DIS
     281       2.91507612       2.91507605       2.438E-08      0.19    <-- DIS
     282       2.91507608       2.91507601       2.339E-08      0.19    <-- DIS
     283       2.91507604       2.91507598       2.244E-08      0.19    <-- DIS
     284       2.91507601       2.91507594       2.152E-08      0.19    <-- DIS
     285       2.91507597       2.91507591       2.065E-08      0.20    <-- DIS
     286       2.91507594       2.91507588       1.981E-08      0.20    <-- DIS
     287       2.91507590       2.91507585       1.901E-08      0.20    <-- DIS
     288       2.91507587       2.91507582       1.823E-08      0.20    <-- DIS
     289       2.91507584       2.91507579       1.749E-08      0.20    <-- DIS
     290       2.91507581       2.91507577       1.678E-08      0.20    <-- DIS
     291       2.91507579       2.91507574       1.610E-08      0.20    <-- DIS
     292       2.91507576       2.91507572       1.545E-08      0.20    <-- DIS
     293       2.91507573       2.91507569       1.482E-08      0.20    <-- DIS
     294       2.91507571       2.91507567       1.422E-08      0.20    <-- DIS
     295       2.91507569       2.91507565       1.364E-08      0.20    <-- DIS
     296       2.91507566       2.91507563       1.309E-08      0.20    <-- DIS
     297       2.91507564       2.91507561       1.256E-08      0.20    <-- DIS
     298       2.91507562       2.91507559       1.205E-08      0.20    <-- DIS
     299       2.91507560       2.91507557       1.156E-08      0.20    <-- DIS
     300       2.91507558       2.91507555       1.109E-08      0.21    <-- DIS
     301       2.91507556       2.91507553       1.064E-08      0.21    <-- DIS
     302       2.91507555       2.91507552       1.021E-08      0.21    <-- DIS
     303       2.91507553       2.91507550       9.791E-09      0.21    <-- DIS
     304       2.91507551       2.91507549       9.393E-09      0.21    <-- DIS
     305       2.91507550       2.91507547       9.012E-09      0.21    <-- DIS
     306       2.91507548       2.91507546       8.646E-09      0.21    <-- DIS
     307       2.91507547       2.91507545       8.295E-09      0.21    <-- DIS
     308       2.91507546       2.91507543       7.958E-09      0.21    <-- DIS
     309       2.91507544       2.91507542       7.635E-09      0.21    <-- DIS
     310       2.91507543       2.91507541       7.324E-09      0.21    <-- DIS
     311       2.91507542       2.91507540       7.027E-09      0.21    <-- DIS
     312       2.91507541       2.91507539       6.742E-09      0.21    <-- DIS
     313       2.91507539       2.91507538       6.468E-09      0.21    <-- DIS
     314       2.91507538       2.91507537       6.205E-09      0.21    <-- DIS
     315       2.91507537       2.91507536       5.953E-09      0.22    <-- DIS
     316       2.91507536       2.91507535       5.711E-09      0.22    <-- DIS
     317       2.91507535       2.91507534       5.479E-09      0.22    <-- DIS
     318       2.91507535       2.91507533       5.257E-09      0.22    <-- DIS
     319       2.91507534       2.91507532       5.043E-09      0.22    <-- DIS
     320       2.91507533       2.91507531       4.839E-09      0.22    <-- DIS
     321       2.91507532       2.91507531       4.642E-09      0.22    <-- DIS
     322       2.91507531       2.91507530       4.454E-09      0.22    <-- DIS
     323       2.91507531       2.91507529       4.273E-09      0.22    <-- DIS
     324       2.91507530       2.91507529       4.099E-09      0.22    <-- DIS
     325       2.91507529       2.91507528       3.933E-09      0.22    <-- DIS
     326       2.91507529       2.91507527       3.773E-09      0.22    <-- DIS
     327       2.91507528       2.91507527       3.620E-09      0.22    <-- DIS
     328       2.91507527       2.91507526       3.473E-09      0.22    <-- DIS
     329       2.91507527       2.91507526       3.332E-09      0.22    <-- DIS
     330       2.91507526       2.91507525       3.197E-09      0.23    <-- DIS
     331       2.91507526       2.91507525       3.067E-09      0.23    <-- DIS
     332       2.91507525       2.91507524       2.942E-09      0.23    <-- DIS
     333       2.91507525       2.91507524       2.823E-09      0.23    <-- DIS
     334       2.91507524       2.91507523       2.708E-09      0.23    <-- DIS
     335       2.91507524       2.91507523       2.598E-09      0.23    <-- DIS
     336       2.91507523       2.91507523       2.493E-09      0.23    <-- DIS
     337       2.91507523       2.91507522       2.391E-09      0.23    <-- DIS
     338       2.91507523       2.91507522       2.294E-09      0.23    <-- DIS
     339       2.91507522       2.91507522       2.201E-09      0.23    <-- DIS
     340       2.91507522       2.91507521       2.112E-09      0.23    <-- DIS
     341       2.91507521       2.91507521       2.026E-09      0.23    <-- DIS
     342       2.91507521       2.91507521       1.944E-09      0.23    <-- DIS
     343       2.91507521       2.91507520       1.865E-09      0.23    <-- DIS
     344       2.91507520       2.91507520       1.789E-09      0.23    <-- DIS
     345       2.91507520       2.91507520       1.716E-09      0.24    <-- DIS
     346       2.91507520       2.91507519       1.647E-09      0.24    <-- DIS
     347       2.91507520       2.91507519       1.580E-09      0.24    <-- DIS
     348       2.91507519       2.91507519       1.516E-09      0.24    <-- DIS
     349       2.91507519       2.91507519       1.454E-09      0.24    <-- DIS
     350       2.91507519       2.91507518       1.395E-09      0.24    <-- DIS
     351       2.91507519       2.91507518       1.338E-09      0.24    <-- DIS
     352       2.91507518       2.91507518       1.284E-09      0.24    <-- DIS
     353       2.91507518       2.91507518       1.232E-09      0.24    <-- DIS
     354       2.91507518       2.91507518       1.182E-09      0.24    <-- DIS
     355       2.91507518       2.91507517       1.134E-09      0.24    <-- DIS
     356       2.91507518       2.91507517       1.088E-09      0.24    <-- DIS
     357       2.91507517       2.91507517       1.044E-09      0.24    <-- DIS
     358       2.91507517       2.91507517       1.001E-09      0.24    <-- DIS
     359       2.91507517       2.91507517       9.607E-10      0.25    <-- DIS
     360       2.91507517       2.91507517       9.217E-10      0.25    <-- DIS
     361       2.91507517       2.91507517       8.843E-10      0.25    <-- DIS
     362       2.91507517       2.91507516       8.484E-10      0.25    <-- DIS
     363       2.91507517       2.91507516       8.139E-10      0.25    <-- DIS
     364       2.91507516       2.91507516       7.809E-10      0.25    <-- DIS
     365       2.91507516       2.91507516       7.491E-10      0.25    <-- DIS
     366       2.91507516       2.91507516       7.187E-10      0.25    <-- DIS
     367       2.91507516       2.91507516       6.895E-10      0.25    <-- DIS
     368       2.91507516       2.91507516       6.616E-10      0.25    <-- DIS
     369       2.91507516       2.91507516       6.347E-10      0.25    <-- DIS
     370       2.91507516       2.91507515       6.089E-10      0.25    <-- DIS
     371       2.91507516       2.91507515       5.842E-10      0.25    <-- DIS
     372       2.91507515       2.91507515       5.605E-10      0.25    <-- DIS
     373       2.91507515       2.91507515       5.377E-10      0.25    <-- DIS
     374       2.91507515       2.91507515       5.159E-10      0.26    <-- DIS
     375       2.91507515       2.91507515       4.949E-10      0.26    <-- DIS
     376       2.91507515       2.91507515       4.748E-10      0.26    <-- DIS
     377       2.91507515       2.91507515       4.556E-10      0.26    <-- DIS
     378       2.91507515       2.91507515       4.371E-10      0.26    <-- DIS
     379       2.91507515       2.91507515       4.193E-10      0.26    <-- DIS
     380       2.91507515       2.91507515       4.023E-10      0.26    <-- DIS
     381       2.91507515       2.91507515       3.860E-10      0.26    <-- DIS
     382       2.91507515       2.91507515       3.703E-10      0.26    <-- DIS
     383       2.91507515       2.91507515       3.552E-10      0.26    <-- DIS
     384       2.91507515       2.91507514       3.408E-10      0.26    <-- DIS
     385       2.91507515       2.91507514       3.270E-10      0.26    <-- DIS
     386       2.91507514       2.91507514       3.137E-10      0.26    <-- DIS
     387       2.91507514       2.91507514       3.010E-10      0.26    <-- DIS
     388       2.91507514       2.91507514       2.888E-10      0.26    <-- DIS
     389       2.91507514       2.91507514       2.770E-10      0.27    <-- DIS
     390       2.91507514       2.91507514       2.658E-10      0.27    <-- DIS
     391       2.91507514       2.91507514       2.550E-10      0.27    <-- DIS
     392       2.91507514       2.91507514       2.446E-10      0.27    <-- DIS
     393       2.91507514       2.91507514       2.347E-10      0.27    <-- DIS
     394       2.91507514       2.91507514       2.252E-10      0.27    <-- DIS
     395       2.91507514       2.91507514       2.160E-10      0.27    <-- DIS
     396       2.91507514       2.91507514       2.073E-10      0.27    <-- DIS
     397       2.91507514       2.91507514       1.988E-10      0.27    <-- DIS
     398       2.91507514       2.91507514       1.908E-10      0.27    <-- DIS
     399       2.91507514       2.91507514       1.830E-10      0.27    <-- DIS
     400       2.91507514       2.91507514       1.756E-10      0.27    <-- DIS
     401       2.91507514       2.91507514       1.685E-10      0.27    <-- DIS
     402       2.91507514       2.91507514       1.616E-10      0.27    <-- DIS
     403       2.91507514       2.91507514       1.551E-10      0.27    <-- DIS
     404       2.91507514       2.91507514       1.488E-10      0.28    <-- DIS
     405       2.91507514       2.91507514       1.427E-10      0.28    <-- DIS
     406       2.91507514       2.91507514       1.369E-10      0.28    <-- DIS
     407       2.91507514       2.91507514       1.314E-10      0.28    <-- DIS
     408       2.91507514       2.91507514       1.260E-10      0.28    <-- DIS
     409       2.91507514       2.91507514       1.209E-10      0.28    <-- DIS
     410       2.91507514       2.91507514       1.160E-10      0.28    <-- DIS
     411       2.91507514       2.91507514       1.113E-10      0.28    <-- DIS
     412       2.91507514       2.91507514       1.068E-10      0.28    <-- DIS
     413       2.91507514       2.91507514       1.024E-10      0.28    <-- DIS
     414       2.91507514       2.91507514       9.828E-11      0.28    <-- DIS
     415       2.91507514       2.91507514       9.430E-11      0.28    <-- DIS
     416       2.91507514       2.91507514       9.046E-11      0.28    <-- DIS

             <<<      Delta < 1.000E-10  over  3 iterations     >>>
             <<< Disentanglement convergence criteria satisfied >>>

        Final Omega_I     2.91507514 (Ang^2)

 +----------------------------------------------------------------------------+

 Time to disentangle bands      0.298 (sec)

 Writing checkpoint file graphene.chk... done

 
 *------------------------------- WANNIERISE ---------------------------------*
 +--------------------------------------------------------------------+<-- CONV
 | Iter  Delta Spread     RMS Gradient      Spread (Ang^2)      Time  |<-- CONV
 +--------------------------------------------------------------------+<-- CONV
 
 ------------------------------------------------------------------------------
 Initial State
  WF centre and spread    1  (  0.000000, -0.000000,  9.999999 )     0.95063829
  WF centre and spread    2  (  1.223630,  0.706463,  9.999999 )     0.95063893
  WF centre and spread    3  (  0.611815,  0.353234,  9.999999 )     0.57198027
  WF centre and spread    4  (  1.835446,  0.353231,  9.999999 )     0.57198197
  WF centre and spread    5  (  1.223628,  1.412925,  9.999999 )     0.57198023
  Sum of centres and spreads (  4.894518,  2.825853, 49.999996 )     3.61721968
 
      0     0.362E+01     0.0000000000        3.6172168958       0.30  <-- CONV
        O_D=      0.0121237 O_OD=      0.6900181 O_TOT=      3.6172169 <-- SPRD
 ------------------------------------------------------------------------------
 Cycle:      1
  WF centre and spread    1  (  0.000000, -0.000000,  9.999999 )     0.95050937
  WF centre and spread    2  (  1.223630,  0.706463,  9.999999 )     0.95051002
  WF centre and spread    3  (  0.611815,  0.353234,  9.999999 )     0.57132331
  WF centre and spread    4  (  1.835446,  0.353231,  9.999999 )     0.57132500
  WF centre and spread    5  (  1.223628,  1.412925,  9.999999 )     0.57132326
  Sum of centres and spreads (  4.894518,  2.825853, 49.999996 )     3.61499097
 
      1    -0.223E-02     0.0305391961        3.6149881846       0.30  <-- CONV
        O_D=      0.0118658 O_OD=      0.6880472 O_TOT=      3.6149882 <-- SPRD
 Delta: O_D= -0.2578210E-03 O_OD= -0.1970890E-02 O_TOT= -0.2228711E-02 <-- DLTA
 ------------------------------------------------------------------------------
 Cycle:      2
  WF centre and spread    1  (  0.000000, -0.000000,  9.999999 )     0.95049448
  WF centre and spread    2  (  1.223630,  0.706463,  9.999999 )     0.95049512
  WF centre and spread    3  (  0.611815,  0.353234,  9.999999 )     0.57095754
  WF centre and spread    4  (  1.835446,  0.353231,  9.999999 )     0.57095924
  WF centre and spread    5  (  1.223628,  1.412925,  9.999999 )     0.57095750
  Sum of centres and spreads (  4.894518,  2.825853, 49.999996 )     3.61386389
 
      2    -0.113E-02     0.0364113028        3.6138611050       0.31  <-- CONV
        O_D=      0.0118360 O_OD=      0.6869499 O_TOT=      3.6138611 <-- SPRD
 Delta: O_D= -0.2978482E-04 O_OD= -0.1097295E-02 O_TOT= -0.1127080E-02 <-- DLTA
 ------------------------------------------------------------------------------
 Cycle:      3
  WF centre and spread    1  (  0.000000, -0.000000,  9.999999 )     0.95049524
  WF centre and spread    2  (  1.223630,  0.706463,  9.999999 )     0.95049588
  WF centre and spread    3  (  0.611815,  0.353233,  9.999999 )     0.57084124
  WF centre and spread    4  (  1.835446,  0.353231,  9.999999 )     0.57084293
  WF centre and spread    5  (  1.223628,  1.412925,  9.999999 )     0.57084119
  Sum of centres and spreads (  4.894518,  2.825853, 49.999996 )     3.61351648
 
      3    -0.347E-03     0.0186653801        3.6135137014       0.31  <-- CONV
        O_D=      0.0118376 O_OD=      0.6866010 O_TOT=      3.6135137 <-- SPRD
 Delta: O_D=  0.1519541E-05 O_OD= -0.3489232E-03 O_TOT= -0.3474036E-03 <-- DLTA
 ------------------------------------------------------------------------------
 Cycle:      4
  WF centre and spread    1  (  0.000000, -0.000000,  9.999999 )     0.95049130
  WF centre and spread    2  (  1.223630,  0.706463,  9.999999 )     0.95049194
  WF centre and spread    3  (  0.611815,  0.353233,  9.999999 )     0.57079963
  WF centre and spread    4  (  1.835446,  0.353231,  9.999999 )     0.57080133
  WF centre and spread    5  (  1.223628,  1.412925,  9.999999 )     0.57079959
  Sum of centres and spreads (  4.894518,  2.825853, 49.999996 )     3.61338379
 
      4    -0.133E-03     0.0112586730        3.6133810092       0.31  <-- CONV
        O_D=      0.0118297 O_OD=      0.6864762 O_TOT=      3.6133810 <-- SPRD
 Delta: O_D= -0.7879811E-05 O_OD= -0.1248124E-03 O_TOT= -0.1326922E-03 <-- DLTA
 ------------------------------------------------------------------------------
 Cycle:      5
  WF centre and spread    1  (  0.000000, -0.000000,  9.999999 )     0.95048696
  WF centre and spread    2  (  1.223630,  0.706463,  9.999999 )     0.95048760
  WF centre and spread    3  (  0.611815,  0.353233,  9.999999 )     0.57078989
  WF centre and spread    4  (  1.835446,  0.353231,  9.999999 )     0.57079158
  WF centre and spread    5  (  1.223628,  1.412925,  9.999999 )     0.57078984
  Sum of centres and spreads (  4.894518,  2.825853, 49.999996 )     3.61334587
 
      5    -0.379E-04     0.0065551741        3.6133430878       0.31  <-- CONV
        O_D=      0.0118210 O_OD=      0.6864470 O_TOT=      3.6133431 <-- SPRD
 Delta: O_D= -0.8690774E-05 O_OD= -0.2923064E-04 O_TOT= -0.3792142E-04 <-- DLTA
 ------------------------------------------------------------------------------
 Cycle:      6
  WF centre and spread    1  (  0.000000, -0.000000,  9.999999 )     0.95048445
  WF centre and spread    2  (  1.223630,  0.706463,  9.999999 )     0.95048509
  WF centre and spread    3  (  0.611815,  0.353233,  9.999999 )     0.57078555
  WF centre and spread    4  (  1.835446,  0.353231,  9.999999 )     0.57078725
  WF centre and spread    5  (  1.223628,  1.412926,  9.999999 )     0.57078551
  Sum of centres and spreads (  4.894518,  2.825853, 49.999996 )     3.61332785
 
      6    -0.180E-04     0.0043081696        3.6133250641       0.31  <-- CONV
        O_D=      0.0118160 O_OD=      0.6864339 O_TOT=      3.6133251 <-- SPRD
 Delta: O_D= -0.5011045E-05 O_OD= -0.1301265E-04 O_TOT= -0.1802370E-04 <-- DLTA
 ------------------------------------------------------------------------------
 Cycle:      7
  WF centre and spread    1  (  0.000000, -0.000000,  9.999999 )     0.95048407
  WF centre and spread    2  (  1.223630,  0.706463,  9.999999 )     0.95048471
  WF centre and spread    3  (  0.611815,  0.353233,  9.999999 )     0.57078461
  WF centre and spread    4  (  1.835446,  0.353231,  9.999999 )     0.57078630
  WF centre and spread    5  (  1.223628,  1.412926,  9.999999 )     0.57078456
  Sum of centres and spreads (  4.894518,  2.825853, 49.999996 )     3.61332424
 
      7    -0.361E-05     0.0023577993        3.6133214573       0.31  <-- CONV
        O_D=      0.0118152 O_OD=      0.6864311 O_TOT=      3.6133215 <-- SPRD
 Delta: O_D= -0.7716809E-06 O_OD= -0.2835148E-05 O_TOT= -0.3606828E-05 <-- DLTA
 ------------------------------------------------------------------------------
 Cycle:      8
  WF centre and spread    1  (  0.000000, -0.000000,  9.999999 )     0.95048375
  WF centre and spread    2  (  1.223630,  0.706463,  9.999999 )     0.95048439
  WF centre and spread    3  (  0.611815,  0.353233,  9.999999 )     0.57078431
  WF centre and spread    4  (  1.835446,  0.353231,  9.999999 )     0.57078600
  WF centre and spread    5  (  1.223628,  1.412926,  9.999999 )     0.57078426
  Sum of centres and spreads (  4.894518,  2.825853, 49.999996 )     3.61332272
 
      8    -0.152E-05     0.0012859355        3.6133199361       0.31  <-- CONV
        O_D=      0.0118146 O_OD=      0.6864302 O_TOT=      3.6133199 <-- SPRD
 Delta: O_D= -0.6251336E-06 O_OD= -0.8960449E-06 O_TOT= -0.1521178E-05 <-- DLTA
 ------------------------------------------------------------------------------
 Cycle:      9
  WF centre and spread    1  (  0.000000, -0.000000,  9.999999 )     0.95048361
  WF centre and spread    2  (  1.223630,  0.706463,  9.999999 )     0.95048425
  WF centre and spread    3  (  0.611815,  0.353233,  9.999999 )     0.57078419
  WF centre and spread    4  (  1.835446,  0.353231,  9.999999 )     0.57078589
  WF centre and spread    5  (  1.223628,  1.412926,  9.999999 )     0.57078414
  Sum of centres and spreads (  4.894518,  2.825853, 49.999996 )     3.61332208
 
      9    -0.635E-06     0.0008201563        3.6133193014       0.31  <-- CONV
        O_D=      0.0118143 O_OD=      0.6864299 O_TOT=      3.6133193 <-- SPRD
 Delta: O_D= -0.2844065E-06 O_OD= -0.3503237E-06 O_TOT= -0.6347302E-06 <-- DLTA
 ------------------------------------------------------------------------------
 Cycle:     10
  WF centre and spread    1  (  0.000000, -0.000000,  9.999999 )     0.95048358
  WF centre and spread    2  (  1.223630,  0.706463,  9.999999 )     0.95048422
  WF centre and spread    3  (  0.611815,  0.353233,  9.999999 )     0.57078415
  WF centre and spread    4  (  1.835445,  0.353231,  9.999999 )     0.57078585
  WF centre and spread    5  (  1.223628,  1.412926,  9.999999 )     0.57078411
  Sum of centres and spreads (  4.894518,  2.825853, 49.999996 )     3.61332191
 
     10    -0.176E-06     0.0004418806        3.6133191255       0.31  <-- CONV
        O_D=      0.0118142 O_OD=      0.6864298 O_TOT=      3.6133191 <-- SPRD
 Delta: O_D= -0.6540784E-07 O_OD= -0.1104380E-06 O_TOT= -0.1758459E-06 <-- DLTA
 ------------------------------------------------------------------------------
 Cycle:     11
  WF centre and spread    1  (  0.000000, -0.000000,  9.999999 )     0.95048357
  WF centre and spread    2  (  1.223630,  0.706463,  9.999999 )     0.95048421
  WF centre and spread    3  (  0.611815,  0.353233,  9.999999 )     0.57078414
  WF centre and spread    4  (  1.835445,  0.353231,  9.999999 )     0.57078583
  WF centre and spread    5  (  1.223628,  1.412926,  9.999999 )     0.57078409
  Sum of centres and spreads (  4.894518,  2.825853, 49.999996 )     3.61332185
 
     11    -0.582E-07     0.0002501595        3.6133190673       0.31  <-- CONV
        O_D=      0.0118142 O_OD=      0.6864297 O_TOT=      3.6133191 <-- SPRD
 Delta: O_D= -0.9690893E-08 O_OD= -0.4854185E-07 O_TOT= -0.5823275E-07 <-- DLTA
 ------------------------------------------------------------------------------
 Cycle:     12
  WF centre and spread    1  (  0.000000, -0.000000,  9.999999 )     0.95048357
  WF centre and spread    2  (  1.223630,  0.706463,  9.999999 )     0.95048421
  WF centre and spread    3  (  0.611815,  0.353233,  9.999999 )     0.57078413
  WF centre and spread    4  (  1.835445,  0.353231,  9.999999 )     0.57078583
  WF centre and spread    5  (  1.223628,  1.412926,  9.999999 )     0.57078409
  Sum of centres and spreads (  4.894518,  2.825853, 49.999996 )     3.61332183
 
     12    -0.203E-07     0.0001512988        3.6133190470       0.31  <-- CONV
        O_D=      0.0118142 O_OD=      0.6864297 O_TOT=      3.6133190 <-- SPRD
 Delta: O_D= -0.1713984E-08 O_OD= -0.1860556E-07 O_TOT= -0.2031954E-07 <-- DLTA
 ------------------------------------------------------------------------------
 Cycle:     13
  WF centre and spread    1  (  0.000000, -0.000000,  9.999999 )     0.95048357
  WF centre and spread    2  (  1.223630,  0.706463,  9.999999 )     0.95048421
  WF centre and spread    3  (  0.611815,  0.353233,  9.999999 )     0.57078413
  WF centre and spread    4  (  1.835445,  0.353231,  9.999999 )     0.57078582
  WF centre and spread    5  (  1.223628,  1.412926,  9.999999 )     0.57078408
  Sum of centres and spreads (  4.894518,  2.825853, 49.999996 )     3.61332182
 
     13    -0.535E-08     0.0000801499        3.6133190416       0.31  <-- CONV
        O_D=      0.0118142 O_OD=      0.6864297 O_TOT=      3.6133190 <-- SPRD
 Delta: O_D= -0.8403487E-10 O_OD= -0.5264511E-08 O_TOT= -0.5348546E-08 <-- DLTA
 ------------------------------------------------------------------------------
 Cycle:     14
  WF centre and spread    1  (  0.000000, -0.000000,  9.999999 )     0.95048357
  WF centre and spread    2  (  1.223630,  0.706463,  9.999999 )     0.95048421
  WF centre and spread    3  (  0.611815,  0.353233,  9.999999 )     0.57078413
  WF centre and spread    4  (  1.835445,  0.353231,  9.999999 )     0.57078582
  WF centre and spread    5  (  1.223628,  1.412926,  9.999999 )     0.57078408
  Sum of centres and spreads (  4.894518,  2.825853, 49.999996 )     3.61332182
 
     14    -0.441E-08     0.0000611078        3.6133190372       0.31  <-- CONV
        O_D=      0.0118142 O_OD=      0.6864297 O_TOT=      3.6133190 <-- SPRD
 Delta: O_D= -0.2051183E-09 O_OD= -0.4199973E-08 O_TOT= -0.4405091E-08 <-- DLTA
 ------------------------------------------------------------------------------
 Cycle:     15
  WF centre and spread    1  (  0.000000, -0.000000,  9.999999 )     0.95048357
  WF centre and spread    2  (  1.223630,  0.706463,  9.999999 )     0.95048421
  WF centre and spread    3  (  0.611815,  0.353233,  9.999999 )     0.57078413
  WF centre and spread    4  (  1.835445,  0.353231,  9.999999 )     0.57078582
  WF centre and spread    5  (  1.223629,  1.412926,  9.999999 )     0.57078408
  Sum of centres and spreads (  4.894518,  2.825853, 49.999996 )     3.61332182
 
     15    -0.265E-08     0.0000483225        3.6133190346       0.31  <-- CONV
        O_D=      0.0118142 O_OD=      0.6864297 O_TOT=      3.6133190 <-- SPRD
 Delta: O_D= -0.8923504E-10 O_OD= -0.2558149E-08 O_TOT= -0.2647383E-08 <-- DLTA
 ------------------------------------------------------------------------------
 Cycle:     16
  WF centre and spread    1  (  0.000000, -0.000000,  9.999999 )     0.95048357
  WF centre and spread    2  (  1.223630,  0.706463,  9.999999 )     0.95048421
  WF centre and spread    3  (  0.611815,  0.353233,  9.999999 )     0.57078413
  WF centre and spread    4  (  1.835445,  0.353231,  9.999999 )     0.57078582
  WF centre and spread    5  (  1.223629,  1.412926,  9.999999 )     0.57078408
  Sum of centres and spreads (  4.894518,  2.825853, 49.999996 )     3.61332182
 
     16    -0.116E-08     0.0000335729        3.6133190334       0.31  <-- CONV
        O_D=      0.0118142 O_OD=      0.6864297 O_TOT=      3.6133190 <-- SPRD
 Delta: O_D= -0.4835189E-10 O_OD= -0.1107995E-08 O_TOT= -0.1156347E-08 <-- DLTA
 ------------------------------------------------------------------------------
 Cycle:     17
  WF centre and spread    1  (  0.000000, -0.000000,  9.999999 )     0.95048357
  WF centre and spread    2  (  1.223630,  0.706463,  9.999999 )     0.95048421
  WF centre and spread    3  (  0.611815,  0.353233,  9.999999 )     0.57078413
  WF centre and spread    4  (  1.835445,  0.353231,  9.999999 )     0.57078582
  WF centre and spread    5  (  1.223629,  1.412926,  9.999999 )     0.57078408
  Sum of centres and spreads (  4.894518,  2.825853, 49.999996 )     3.61332182
 
     17    -0.328E-09     0.0000193320        3.6133190331       0.31  <-- CONV
        O_D=      0.0118142 O_OD=      0.6864297 O_TOT=      3.6133190 <-- SPRD
 Delta: O_D= -0.1802373E-10 O_OD= -0.3104014E-09 O_TOT= -0.3284253E-09 <-- DLTA
 ------------------------------------------------------------------------------
 Cycle:     18
  WF centre and spread    1  (  0.000000, -0.000000,  9.999999 )     0.95048357
  WF centre and spread    2  (  1.223630,  0.706463,  9.999999 )     0.95048421
  WF centre and spread    3  (  0.611815,  0.353233,  9.999999 )     0.57078413
  WF centre and spread    4  (  1.835445,  0.353231,  9.999999 )     0.57078582
  WF centre and spread    5  (  1.223629,  1.412926,  9.999999 )     0.57078408
  Sum of centres and spreads (  4.894518,  2.825853, 49.999996 )     3.61332182
 
     18    -0.824E-10     0.0000102255        3.6133190330       0.32  <-- CONV
        O_D=      0.0118142 O_OD=      0.6864297 O_TOT=      3.6133190 <-- SPRD
 Delta: O_D= -0.1263989E-10 O_OD= -0.6974665E-10 O_TOT= -0.8238654E-10 <-- DLTA
 ------------------------------------------------------------------------------
 Cycle:     19
  WF centre and spread    1  (  0.000000, -0.000000,  9.999999 )     0.95048357
  WF centre and spread    2  (  1.223630,  0.706463,  9.999999 )     0.95048421
  WF centre and spread    3  (  0.611815,  0.353233,  9.999999 )     0.57078413
  WF centre and spread    4  (  1.835445,  0.353231,  9.999999 )     0.57078582
  WF centre and spread    5  (  1.223629,  1.412926,  9.999999 )     0.57078408
  Sum of centres and spreads (  4.894518,  2.825853, 49.999996 )     3.61332182
 
     19    -0.253E-10     0.0000057171        3.6133190330       0.32  <-- CONV
        O_D=      0.0118142 O_OD=      0.6864297 O_TOT=      3.6133190 <-- SPRD
 Delta: O_D= -0.2614877E-11 O_OD= -0.2267198E-10 O_TOT= -0.2528688E-10 <-- DLTA
 ------------------------------------------------------------------------------
 Cycle:     20
  WF centre and spread    1  (  0.000000, -0.000000,  9.999999 )     0.95048357
  WF centre and spread    2  (  1.223630,  0.706463,  9.999999 )     0.95048421
  WF centre and spread    3  (  0.611815,  0.353233,  9.999999 )     0.57078413
  WF centre and spread    4  (  1.835445,  0.353231,  9.999999 )     0.57078582
  WF centre and spread    5  (  1.223629,  1.412926,  9.999999 )     0.57078408
  Sum of centres and spreads (  4.894518,  2.825853, 49.999996 )     3.61332182
 
     20    -0.135E-12     0.0000036046        3.6133190330       0.32  <-- CONV
        O_D=      0.0118142 O_OD=      0.6864297 O_TOT=      3.6133190 <-- SPRD
 Delta: O_D= -0.1694998E-13 O_OD= -0.1179057E-12 O_TOT= -0.1345590E-12 <-- DLTA
 ------------------------------------------------------------------------------
 Cycle:     21
  WF centre and spread    1  (  0.000000, -0.000000,  9.999999 )     0.95048357
  WF centre and spread    2  (  1.223630,  0.706463,  9.999999 )     0.95048421
  WF centre and spread    3  (  0.611815,  0.353233,  9.999999 )     0.57078413
  WF centre and spread    4  (  1.835445,  0.353231,  9.999999 )     0.57078582
  WF centre and spread    5  (  1.223629,  1.412926,  9.999999 )     0.57078408
  Sum of centres and spreads (  4.894518,  2.825853, 49.999996 )     3.61332182
 
     21    -0.239E-12     0.0000035961        3.6133190330       0.32  <-- CONV
        O_D=      0.0118142 O_OD=      0.6864297 O_TOT=      3.6133190 <-- SPRD
 Delta: O_D= -0.3713696E-13 O_OD= -0.2016165E-12 O_TOT= -0.2389200E-12 <-- DLTA
 ------------------------------------------------------------------------------
 Cycle:     22
  WF centre and spread    1  (  0.000000, -0.000000,  9.999999 )     0.95048357
  WF centre and spread    2  (  1.223630,  0.706463,  9.999999 )     0.95048421
  WF centre and spread    3  (  0.611815,  0.353233,  9.999999 )     0.57078413
  WF centre and spread    4  (  1.835445,  0.353231,  9.999999 )     0.57078582
  WF centre and spread    5  (  1.223629,  1.412926,  9.999999 )     0.57078408
  Sum of centres and spreads (  4.894518,  2.825853, 49.999996 )     3.61332181
 
     22    -0.207E-10     0.0000035764        3.6133190329       0.32  <-- CONV
        O_D=      0.0118142 O_OD=      0.6864297 O_TOT=      3.6133190 <-- SPRD
 Delta: O_D= -0.1386337E-11 O_OD= -0.1933631E-10 O_TOT= -0.2072253E-10 <-- DLTA
 ------------------------------------------------------------------------------
 Cycle:     23
  WF centre and spread    1  (  0.000000, -0.000000,  9.999999 )     0.95048357
  WF centre and spread    2  (  1.223630,  0.706463,  9.999999 )     0.95048421
  WF centre and spread    3  (  0.611815,  0.353233,  9.999999 )     0.57078413
  WF centre and spread    4  (  1.835445,  0.353231,  9.999999 )     0.57078582
  WF centre and spread    5  (  1.223629,  1.412926,  9.999999 )     0.57078408
  Sum of centres and spreads (  4.894518,  2.825853, 49.999996 )     3.61332181
 
     23    -0.939E-11     0.0000032980        3.6133190329       0.32  <-- CONV
        O_D=      0.0118142 O_OD=      0.6864297 O_TOT=      3.6133190 <-- SPRD
 Delta: O_D= -0.2498418E-12 O_OD= -0.9138024E-11 O_TOT= -0.9388046E-11 <-- DLTA
 ------------------------------------------------------------------------------
 Cycle:     24
  WF centre and spread    1  (  0.000000, -0.000000,  9.999999 )     0.95048357
  WF centre and spread    2  (  1.223630,  0.706463,  9.999999 )     0.95048421
  WF centre and spread    3  (  0.611815,  0.353232,  9.999999 )     0.57078413
  WF centre and spread    4  (  1.835445,  0.353231,  9.999999 )     0.57078582
  WF centre and spread    5  (  1.223629,  1.412926,  9.999999 )     0.57078408
  Sum of centres and spreads (  4.894518,  2.825853, 49.999996 )     3.61332181
 
     24    -0.693E-11     0.0000039690        3.6133190329       0.32  <-- CONV
        O_D=      0.0118142 O_OD=      0.6864297 O_TOT=      3.6133190 <-- SPRD
 Delta: O_D= -0.1518011E-11 O_OD= -0.5415224E-11 O_TOT= -0.6933121E-11 <-- DLTA
 ------------------------------------------------------------------------------
 Cycle:     25
  WF centre and spread    1  (  0.000000, -0.000000,  9.999999 )     0.95048357
  WF centre and spread    2  (  1.223630,  0.706463,  9.999999 )     0.95048421
  WF centre and spread    3  (  0.611815,  0.353232,  9.999999 )     0.57078413
  WF centre and spread    4  (  1.835445,  0.353231,  9.999999 )     0.57078582
  WF centre and spread    5  (  1.223629,  1.412926,  9.999999 )     0.57078408
  Sum of centres and spreads (  4.894518,  2.825853, 49.999996 )     3.61332181
 
     25    -0.101E-12     0.0000035342        3.6133190329       0.32  <-- CONV
        O_D=      0.0118142 O_OD=      0.6864297 O_TOT=      3.6133190 <-- SPRD
 Delta: O_D= -0.1857715E-13 O_OD= -0.8282264E-13 O_TOT= -0.1012523E-12 <-- DLTA
 ------------------------------------------------------------------------------
 Cycle:     26
  WF centre and spread    1  (  0.000000, -0.000000,  9.999999 )     0.95048357
  WF centre and spread    2  (  1.223630,  0.706463,  9.999999 )     0.95048421
  WF centre and spread    3  (  0.611815,  0.353232,  9.999999 )     0.57078413
  WF centre and spread    4  (  1.835445,  0.353231,  9.999999 )     0.57078582
  WF centre and spread    5  (  1.223629,  1.412926,  9.999999 )     0.57078408
  Sum of centres and spreads (  4.894518,  2.825853, 49.999996 )     3.61332181
 
     26    -0.846E-11     0.0000035158        3.6133190329       0.32  <-- CONV
        O_D=      0.0118142 O_OD=      0.6864297 O_TOT=      3.6133190 <-- SPRD
 Delta: O_D= -0.7624439E-12 O_OD= -0.7695400E-11 O_TOT= -0.8458123E-11 <-- DLTA
 ------------------------------------------------------------------------------
 Cycle:     27
  WF centre and spread    1  (  0.000000, -0.000000,  9.999999 )     0.95048357
  WF centre and spread    2  (  1.223630,  0.706463,  9.999999 )     0.95048421
  WF centre and spread    3  (  0.611815,  0.353232,  9.999999 )     0.57078413
  WF centre and spread    4  (  1.835445,  0.353231,  9.999999 )     0.57078582
  WF centre and spread    5  (  1.223629,  1.412926,  9.999999 )     0.57078408
  Sum of centres and spreads (  4.894518,  2.825853, 49.999996 )     3.61332181
 
     27    -0.208E-11     0.0000022130        3.6133190329       0.32  <-- CONV
        O_D=      0.0118142 O_OD=      0.6864297 O_TOT=      3.6133190 <-- SPRD
 Delta: O_D=  0.7729060E-13 O_OD= -0.2162048E-11 O_TOT= -0.2084555E-11 <-- DLTA
 ------------------------------------------------------------------------------
 Cycle:     28
  WF centre and spread    1  (  0.000000, -0.000000,  9.999999 )     0.95048357
  WF centre and spread    2  (  1.223630,  0.706463,  9.999999 )     0.95048421
  WF centre and spread    3  (  0.611815,  0.353232,  9.999999 )     0.57078413
  WF centre and spread    4  (  1.835445,  0.353231,  9.999999 )     0.57078582
  WF centre and spread    5  (  1.223629,  1.412926,  9.999999 )     0.57078408
  Sum of centres and spreads (  4.894518,  2.825853, 49.999996 )     3.61332181
 
     28    -0.906E-13     0.0000021559        3.6133190329       0.32  <-- CONV
        O_D=      0.0118142 O_OD=      0.6864297 O_TOT=      3.6133190 <-- SPRD
 Delta: O_D= -0.2756476E-14 O_OD= -0.8792966E-13 O_TOT= -0.9059420E-13 <-- DLTA
 ------------------------------------------------------------------------------
 Cycle:     29
  WF centre and spread    1  (  0.000000, -0.000000,  9.999999 )     0.95048357
  WF centre and spread    2  (  1.223630,  0.706463,  9.999999 )     0.95048421
  WF centre and spread    3  (  0.611815,  0.353232,  9.999999 )     0.57078413
  WF centre and spread    4  (  1.835445,  0.353231,  9.999999 )     0.57078582
  WF centre and spread    5  (  1.223629,  1.412926,  9.999999 )     0.57078408
  Sum of centres and spreads (  4.894518,  2.825853, 49.999996 )     3.61332181
 
     29    -0.127E-12     0.0000021495        3.6133190329       0.32  <-- CONV
        O_D=      0.0118142 O_OD=      0.6864297 O_TOT=      3.6133190 <-- SPRD
 Delta: O_D= -0.8153200E-14 O_OD= -0.1187939E-12 O_TOT= -0.1270095E-12 <-- DLTA
 ------------------------------------------------------------------------------
 Cycle:     30
  WF centre and spread    1  (  0.000000, -0.000000,  9.999999 )     0.95048357
  WF centre and spread    2  (  1.223630,  0.706463,  9.999999 )     0.95048421
  WF centre and spread    3  (  0.611815,  0.353232,  9.999999 )     0.57078413
  WF centre and spread    4  (  1.835445,  0.353231,  9.999999 )     0.57078582
  WF centre and spread    5  (  1.223629,  1.412926,  9.999999 )     0.57078408
  Sum of centres and spreads (  4.894518,  2.825853, 49.999996 )     3.61332181
 
     30    -0.753E-11     0.0000021367        3.6133190329       0.32  <-- CONV
        O_D=      0.0118142 O_OD=      0.6864297 O_TOT=      3.6133190 <-- SPRD
 Delta: O_D= -0.2781299E-12 O_OD= -0.7251644E-11 O_TOT= -0.7529977E-11 <-- DLTA
 ------------------------------------------------------------------------------
 Cycle:     31
  WF centre and spread    1  (  0.000000, -0.000000,  9.999999 )     0.95048357
  WF centre and spread    2  (  1.223630,  0.706463,  9.999999 )     0.95048421
  WF centre and spread    3  (  0.611815,  0.353232,  9.999999 )     0.57078413
  WF centre and spread    4  (  1.835445,  0.353231,  9.999999 )     0.57078582
  WF centre and spread    5  (  1.223629,  1.412926,  9.999999 )     0.57078408
  Sum of centres and spreads (  4.894518,  2.825853, 49.999996 )     3.61332181
 
     31    -0.240E-13     0.0000017265        3.6133190329       0.32  <-- CONV
        O_D=      0.0118142 O_OD=      0.6864297 O_TOT=      3.6133190 <-- SPRD
 Delta: O_D= -0.1852685E-14 O_OD= -0.2209344E-13 O_TOT= -0.2398082E-13 <-- DLTA
 ------------------------------------------------------------------------------
 Cycle:     32
  WF centre and spread    1  (  0.000000, -0.000000,  9.999999 )     0.95048357
  WF centre and spread    2  (  1.223630,  0.706463,  9.999999 )     0.95048421
  WF centre and spread    3  (  0.611815,  0.353232,  9.999999 )     0.57078413
  WF centre and spread    4  (  1.835445,  0.353231,  9.999999 )     0.57078582
  WF centre and spread    5  (  1.223629,  1.412926,  9.999999 )     0.57078408
  Sum of centres and spreads (  4.894518,  2.825853, 49.999996 )     3.61332181
 
     32    -0.124E-11     0.0000017240        3.6133190329       0.32  <-- CONV
        O_D=      0.0118142 O_OD=      0.6864297 O_TOT=      3.6133190 <-- SPRD
 Delta: O_D= -0.7402412E-13 O_OD= -0.1164069E-11 O_TOT= -0.1238121E-11 <-- DLTA
 ------------------------------------------------------------------------------
 Cycle:     33
  WF centre and spread    1  (  0.000000, -0.000000,  9.999999 )     0.95048357
  WF centre and spread    2  (  1.223630,  0.706463,  9.999999 )     0.95048421
  WF centre and spread    3  (  0.611815,  0.353232,  9.999999 )     0.57078413
  WF centre and spread    4  (  1.835445,  0.353231,  9.999999 )     0.57078582
  WF centre and spread    5  (  1.223629,  1.412926,  9.999999 )     0.57078408
[...]
 Delta: O_D= -0.6938894E-15 O_OD= -0.4851675E-13 O_TOT= -0.4929390E-13 <-- DLTA
 ------------------------------------------------------------------------------
 Cycle:    180
  WF centre and spread    1  (  0.000000, -0.000000,  9.999999 )     0.95048357
  WF centre and spread    2  (  1.223630,  0.706463,  9.999999 )     0.95048421
  WF centre and spread    3  (  0.611815,  0.353232,  9.999999 )     0.57078413
  WF centre and spread    4  (  1.835445,  0.353231,  9.999999 )     0.57078582
  WF centre and spread    5  (  1.223629,  1.412926,  9.999999 )     0.57078408
  Sum of centres and spreads (  4.894518,  2.825853, 49.999996 )     3.61332181
 
    180    -0.162E-11     0.0000010968        3.6133190329       0.40  <-- CONV
        O_D=      0.0118142 O_OD=      0.6864297 O_TOT=      3.6133190 <-- SPRD
 Delta: O_D= -0.2310131E-13 O_OD= -0.1598166E-11 O_TOT= -0.1621370E-11 <-- DLTA
 ------------------------------------------------------------------------------
 Cycle:    181
  WF centre and spread    1  (  0.000000, -0.000000,  9.999999 )     0.95048357
  WF centre and spread    2  (  1.223630,  0.706463,  9.999999 )     0.95048421
  WF centre and spread    3  (  0.611815,  0.353232,  9.999999 )     0.57078413
  WF centre and spread    4  (  1.835445,  0.353231,  9.999999 )     0.57078582
  WF centre and spread    5  (  1.223629,  1.412926,  9.999999 )     0.57078408
  Sum of centres and spreads (  4.894518,  2.825853, 49.999996 )     3.61332181
 
    181    -0.977E-14     0.0000010760        3.6133190329       0.40  <-- CONV
        O_D=      0.0118142 O_OD=      0.6864297 O_TOT=      3.6133190 <-- SPRD
 Delta: O_D= -0.1370432E-15 O_OD= -0.9658940E-14 O_TOT= -0.9769963E-14 <-- DLTA
 ------------------------------------------------------------------------------
 Cycle:    182
  WF centre and spread    1  (  0.000000, -0.000000,  9.999999 )     0.95048357
  WF centre and spread    2  (  1.223630,  0.706463,  9.999999 )     0.95048421
  WF centre and spread    3  (  0.611815,  0.353232,  9.999999 )     0.57078413
  WF centre and spread    4  (  1.835445,  0.353231,  9.999999 )     0.57078582
  WF centre and spread    5  (  1.223629,  1.412926,  9.999999 )     0.57078408
  Sum of centres and spreads (  4.894518,  2.825853, 49.999996 )     3.61332181
 
    182    -0.182E-13     0.0000010759        3.6133190329       0.40  <-- CONV
        O_D=      0.0118142 O_OD=      0.6864297 O_TOT=      3.6133190 <-- SPRD
 Delta: O_D= -0.2619432E-15 O_OD= -0.1809664E-13 O_TOT= -0.1820766E-13 <-- DLTA
 ------------------------------------------------------------------------------
 Cycle:    183
  WF centre and spread    1  (  0.000000, -0.000000,  9.999999 )     0.95048357
  WF centre and spread    2  (  1.223630,  0.706463,  9.999999 )     0.95048421
  WF centre and spread    3  (  0.611815,  0.353232,  9.999999 )     0.57078413
  WF centre and spread    4  (  1.835445,  0.353231,  9.999999 )     0.57078582
  WF centre and spread    5  (  1.223629,  1.412926,  9.999999 )     0.57078408
  Sum of centres and spreads (  4.894518,  2.825853, 49.999996 )     3.61332181
 
    183    -0.280E-13     0.0000010757        3.6133190329       0.40  <-- CONV
        O_D=      0.0118142 O_OD=      0.6864297 O_TOT=      3.6133190 <-- SPRD
 Delta: O_D= -0.4024558E-15 O_OD= -0.2775558E-13 O_TOT= -0.2797762E-13 <-- DLTA
 ------------------------------------------------------------------------------
 Cycle:    184
  WF centre and spread    1  (  0.000000, -0.000000,  9.999999 )     0.95048357
  WF centre and spread    2  (  1.223630,  0.706463,  9.999999 )     0.95048421
  WF centre and spread    3  (  0.611815,  0.353232,  9.999999 )     0.57078413
  WF centre and spread    4  (  1.835445,  0.353231,  9.999999 )     0.57078582
  WF centre and spread    5  (  1.223629,  1.412926,  9.999999 )     0.57078408
  Sum of centres and spreads (  4.894518,  2.825853, 49.999996 )     3.61332181
 
    184    -0.377E-13     0.0000010753        3.6133190329       0.40  <-- CONV
        O_D=      0.0118142 O_OD=      0.6864297 O_TOT=      3.6133190 <-- SPRD
 Delta: O_D= -0.5290907E-15 O_OD= -0.3697043E-13 O_TOT= -0.3774758E-13 <-- DLTA
 ------------------------------------------------------------------------------
 Cycle:    185
  WF centre and spread    1  (  0.000000, -0.000000,  9.999999 )     0.95048357
  WF centre and spread    2  (  1.223630,  0.706463,  9.999999 )     0.95048421
  WF centre and spread    3  (  0.611815,  0.353232,  9.999999 )     0.57078413
  WF centre and spread    4  (  1.835445,  0.353231,  9.999999 )     0.57078582
  WF centre and spread    5  (  1.223629,  1.412926,  9.999999 )     0.57078408
  Sum of centres and spreads (  4.894518,  2.825853, 49.999996 )     3.61332181
 
    185    -0.466E-13     0.0000010748        3.6133190329       0.40  <-- CONV
        O_D=      0.0118142 O_OD=      0.6864297 O_TOT=      3.6133190 <-- SPRD
 Delta: O_D= -0.6661338E-15 O_OD= -0.4607426E-13 O_TOT= -0.4662937E-13 <-- DLTA
 ------------------------------------------------------------------------------
 Cycle:    186
  WF centre and spread    1  (  0.000000, -0.000000,  9.999999 )     0.95048357
  WF centre and spread    2  (  1.223630,  0.706463,  9.999999 )     0.95048421
  WF centre and spread    3  (  0.611815,  0.353232,  9.999999 )     0.57078413
  WF centre and spread    4  (  1.835445,  0.353231,  9.999999 )     0.57078582
  WF centre and spread    5  (  1.223629,  1.412926,  9.999999 )     0.57078408
  Sum of centres and spreads (  4.894518,  2.825853, 49.999996 )     3.61332181
 
    186    -0.560E-13     0.0000010742        3.6133190329       0.40  <-- CONV
        O_D=      0.0118142 O_OD=      0.6864297 O_TOT=      3.6133190 <-- SPRD
 Delta: O_D= -0.8049117E-15 O_OD= -0.5517808E-13 O_TOT= -0.5595524E-13 <-- DLTA
 ------------------------------------------------------------------------------
 Cycle:    187
  WF centre and spread    1  (  0.000000, -0.000000,  9.999999 )     0.95048357
  WF centre and spread    2  (  1.223630,  0.706463,  9.999999 )     0.95048421
  WF centre and spread    3  (  0.611815,  0.353232,  9.999999 )     0.57078413
  WF centre and spread    4  (  1.835445,  0.353231,  9.999999 )     0.57078582
  WF centre and spread    5  (  1.223629,  1.412926,  9.999999 )     0.57078408
  Sum of centres and spreads (  4.894518,  2.825853, 49.999996 )     3.61332181
 
    187    -0.933E-14     0.0000010735        3.6133190329       0.40  <-- CONV
        O_D=      0.0118142 O_OD=      0.6864297 O_TOT=      3.6133190 <-- SPRD
 Delta: O_D= -0.1335737E-15 O_OD= -0.9103829E-14 O_TOT= -0.9325873E-14 <-- DLTA
 ------------------------------------------------------------------------------
 Cycle:    188
  WF centre and spread    1  (  0.000000, -0.000000,  9.999999 )     0.95048357
  WF centre and spread    2  (  1.223630,  0.706463,  9.999999 )     0.95048421
  WF centre and spread    3  (  0.611815,  0.353232,  9.999999 )     0.57078413
  WF centre and spread    4  (  1.835445,  0.353231,  9.999999 )     0.57078582
  WF centre and spread    5  (  1.223629,  1.412926,  9.999999 )     0.57078408
  Sum of centres and spreads (  4.894518,  2.825853, 49.999996 )     3.61332181
 
    188    -0.191E-13     0.0000010734        3.6133190329       0.40  <-- CONV
        O_D=      0.0118142 O_OD=      0.6864297 O_TOT=      3.6133190 <-- SPRD
 Delta: O_D= -0.2619432E-15 O_OD= -0.1865175E-13 O_TOT= -0.1909584E-13 <-- DLTA
 ------------------------------------------------------------------------------
 Cycle:    189
  WF centre and spread    1  (  0.000000, -0.000000,  9.999999 )     0.95048357
  WF centre and spread    2  (  1.223630,  0.706463,  9.999999 )     0.95048421
  WF centre and spread    3  (  0.611815,  0.353232,  9.999999 )     0.57078413
  WF centre and spread    4  (  1.835445,  0.353231,  9.999999 )     0.57078582
  WF centre and spread    5  (  1.223629,  1.412926,  9.999999 )     0.57078408
  Sum of centres and spreads (  4.894518,  2.825853, 49.999996 )     3.61332181
 
    189    -0.280E-13     0.0000010731        3.6133190329       0.40  <-- CONV
        O_D=      0.0118142 O_OD=      0.6864297 O_TOT=      3.6133190 <-- SPRD
 Delta: O_D= -0.3955170E-15 O_OD= -0.2764455E-13 O_TOT= -0.2797762E-13 <-- DLTA
 ------------------------------------------------------------------------------
 Cycle:    190
  WF centre and spread    1  (  0.000000, -0.000000,  9.999999 )     0.95048357
  WF centre and spread    2  (  1.223630,  0.706463,  9.999999 )     0.95048421
  WF centre and spread    3  (  0.611815,  0.353232,  9.999999 )     0.57078413
  WF centre and spread    4  (  1.835445,  0.353231,  9.999999 )     0.57078582
  WF centre and spread    5  (  1.223629,  1.412926,  9.999999 )     0.57078408
  Sum of centres and spreads (  4.894518,  2.825853, 49.999996 )     3.61332181
 
    190    -0.373E-13     0.0000010727        3.6133190329       0.40  <-- CONV
        O_D=      0.0118142 O_OD=      0.6864297 O_TOT=      3.6133190 <-- SPRD
 Delta: O_D= -0.5325601E-15 O_OD= -0.3685940E-13 O_TOT= -0.3730349E-13 <-- DLTA
 ------------------------------------------------------------------------------
 Cycle:    191
  WF centre and spread    1  (  0.000000, -0.000000,  9.999999 )     0.95048357
  WF centre and spread    2  (  1.223630,  0.706463,  9.999999 )     0.95048421
  WF centre and spread    3  (  0.611815,  0.353232,  9.999999 )     0.57078413
  WF centre and spread    4  (  1.835445,  0.353231,  9.999999 )     0.57078582
  WF centre and spread    5  (  1.223629,  1.412926,  9.999999 )     0.57078408
  Sum of centres and spreads (  4.894518,  2.825853, 49.999996 )     3.61332181
 
    191    -0.462E-13     0.0000010723        3.6133190329       0.40  <-- CONV
        O_D=      0.0118142 O_OD=      0.6864297 O_TOT=      3.6133190 <-- SPRD
 Delta: O_D= -0.6626644E-15 O_OD= -0.4585221E-13 O_TOT= -0.4618528E-13 <-- DLTA
 ------------------------------------------------------------------------------
 Cycle:    192
  WF centre and spread    1  (  0.000000, -0.000000,  9.999999 )     0.95048357
  WF centre and spread    2  (  1.223630,  0.706463,  9.999999 )     0.95048421
  WF centre and spread    3  (  0.611815,  0.353232,  9.999999 )     0.57078413
  WF centre and spread    4  (  1.835445,  0.353231,  9.999999 )     0.57078582
  WF centre and spread    5  (  1.223629,  1.412926,  9.999999 )     0.57078408
  Sum of centres and spreads (  4.894518,  2.825853, 49.999996 )     3.61332181
 
    192    -0.560E-13     0.0000010717        3.6133190329       0.40  <-- CONV
        O_D=      0.0118142 O_OD=      0.6864297 O_TOT=      3.6133190 <-- SPRD
 Delta: O_D= -0.7927686E-15 O_OD= -0.5495604E-13 O_TOT= -0.5595524E-13 <-- DLTA
 ------------------------------------------------------------------------------
 Cycle:    193
  WF centre and spread    1  (  0.000000, -0.000000,  9.999999 )     0.95048357
  WF centre and spread    2  (  1.223630,  0.706463,  9.999999 )     0.95048421
  WF centre and spread    3  (  0.611815,  0.353232,  9.999999 )     0.57078413
  WF centre and spread    4  (  1.835445,  0.353231,  9.999999 )     0.57078582
  WF centre and spread    5  (  1.223629,  1.412926,  9.999999 )     0.57078408
  Sum of centres and spreads (  4.894518,  2.825853, 49.999996 )     3.61332181
 
    193    -0.933E-14     0.0000010709        3.6133190329       0.40  <-- CONV
        O_D=      0.0118142 O_OD=      0.6864297 O_TOT=      3.6133190 <-- SPRD
 Delta: O_D= -0.1353084E-15 O_OD= -0.9325873E-14 O_TOT= -0.9325873E-14 <-- DLTA
 ------------------------------------------------------------------------------
 Cycle:    194
  WF centre and spread    1  (  0.000000, -0.000000,  9.999999 )     0.95048357
  WF centre and spread    2  (  1.223630,  0.706463,  9.999999 )     0.95048421
  WF centre and spread    3  (  0.611815,  0.353232,  9.999999 )     0.57078413
  WF centre and spread    4  (  1.835445,  0.353231,  9.999999 )     0.57078582
  WF centre and spread    5  (  1.223629,  1.412926,  9.999999 )     0.57078408
  Sum of centres and spreads (  4.894518,  2.825853, 49.999996 )     3.61332181
 
    194    -0.191E-13     0.0000010708        3.6133190329       0.40  <-- CONV
        O_D=      0.0118142 O_OD=      0.6864297 O_TOT=      3.6133190 <-- SPRD
 Delta: O_D= -0.2602085E-15 O_OD= -0.1842970E-13 O_TOT= -0.1909584E-13 <-- DLTA
 ------------------------------------------------------------------------------
 Cycle:    195
  WF centre and spread    1  (  0.000000, -0.000000,  9.999999 )     0.95048357
  WF centre and spread    2  (  1.223630,  0.706463,  9.999999 )     0.95048421
  WF centre and spread    3  (  0.611815,  0.353232,  9.999999 )     0.57078413
  WF centre and spread    4  (  1.835445,  0.353231,  9.999999 )     0.57078582
  WF centre and spread    5  (  1.223629,  1.412926,  9.999999 )     0.57078408
  Sum of centres and spreads (  4.894518,  2.825853, 49.999996 )     3.61332181
 
    195    -0.275E-13     0.0000010706        3.6133190329       0.40  <-- CONV
        O_D=      0.0118142 O_OD=      0.6864297 O_TOT=      3.6133190 <-- SPRD
 Delta: O_D= -0.3989864E-15 O_OD= -0.2753353E-13 O_TOT= -0.2753353E-13 <-- DLTA
 ------------------------------------------------------------------------------
 Cycle:    196
  WF centre and spread    1  (  0.000000, -0.000000,  9.999999 )     0.95048357
  WF centre and spread    2  (  1.223630,  0.706463,  9.999999 )     0.95048421
  WF centre and spread    3  (  0.611815,  0.353232,  9.999999 )     0.57078413
  WF centre and spread    4  (  1.835445,  0.353231,  9.999999 )     0.57078582
  WF centre and spread    5  (  1.223629,  1.412926,  9.999999 )     0.57078408
  Sum of centres and spreads (  4.894518,  2.825853, 49.999996 )     3.61332181
 
    196    -0.373E-13     0.0000010702        3.6133190329       0.40  <-- CONV
        O_D=      0.0118142 O_OD=      0.6864297 O_TOT=      3.6133190 <-- SPRD
 Delta: O_D= -0.5238865E-15 O_OD= -0.3641532E-13 O_TOT= -0.3730349E-13 <-- DLTA
 ------------------------------------------------------------------------------
 Cycle:    197
  WF centre and spread    1  (  0.000000, -0.000000,  9.999999 )     0.95048357
  WF centre and spread    2  (  1.223630,  0.706463,  9.999999 )     0.95048421
  WF centre and spread    3  (  0.611815,  0.353232,  9.999999 )     0.57078413
  WF centre and spread    4  (  1.835445,  0.353231,  9.999999 )     0.57078582
  WF centre and spread    5  (  1.223629,  1.412926,  9.999999 )     0.57078408
  Sum of centres and spreads (  4.894518,  2.825853, 49.999996 )     3.61332181
 
    197    -0.462E-13     0.0000010697        3.6133190329       0.40  <-- CONV
        O_D=      0.0118142 O_OD=      0.6864297 O_TOT=      3.6133190 <-- SPRD
 Delta: O_D= -0.6591949E-15 O_OD= -0.4551914E-13 O_TOT= -0.4618528E-13 <-- DLTA
 ------------------------------------------------------------------------------
 Cycle:    198
  WF centre and spread    1  (  0.000000, -0.000000,  9.999999 )     0.95048357
  WF centre and spread    2  (  1.223630,  0.706463,  9.999999 )     0.95048421
  WF centre and spread    3  (  0.611815,  0.353232,  9.999999 )     0.57078413
  WF centre and spread    4  (  1.835445,  0.353231,  9.999999 )     0.57078582
  WF centre and spread    5  (  1.223629,  1.412926,  9.999999 )     0.57078408
  Sum of centres and spreads (  4.894518,  2.825853, 49.999996 )     3.61332181
 
    198    -0.551E-13     0.0000010691        3.6133190329       0.40  <-- CONV
        O_D=      0.0118142 O_OD=      0.6864297 O_TOT=      3.6133190 <-- SPRD
 Delta: O_D= -0.7858297E-15 O_OD= -0.5451195E-13 O_TOT= -0.5506706E-13 <-- DLTA
 ------------------------------------------------------------------------------
 Cycle:    199
  WF centre and spread    1  (  0.000000, -0.000000,  9.999999 )     0.95048357
  WF centre and spread    2  (  1.223630,  0.706463,  9.999999 )     0.95048421
  WF centre and spread    3  (  0.611815,  0.353232,  9.999999 )     0.57078413
  WF centre and spread    4  (  1.835445,  0.353231,  9.999999 )     0.57078582
  WF centre and spread    5  (  1.223629,  1.412926,  9.999999 )     0.57078408
  Sum of centres and spreads (  4.894518,  2.825853, 49.999996 )     3.61332181
 
    199    -0.933E-14     0.0000010684        3.6133190329       0.40  <-- CONV
        O_D=      0.0118142 O_OD=      0.6864297 O_TOT=      3.6133190 <-- SPRD
 Delta: O_D= -0.1335737E-15 O_OD= -0.9103829E-14 O_TOT= -0.9325873E-14 <-- DLTA
 ------------------------------------------------------------------------------
 Cycle:    200
  WF centre and spread    1  (  0.000000, -0.000000,  9.999999 )     0.95048357
  WF centre and spread    2  (  1.223630,  0.706463,  9.999999 )     0.95048421
  WF centre and spread    3  (  0.611815,  0.353232,  9.999999 )     0.57078413
  WF centre and spread    4  (  1.835445,  0.353231,  9.999999 )     0.57078582
  WF centre and spread    5  (  1.223629,  1.412926,  9.999999 )     0.57078408
  Sum of centres and spreads (  4.894518,  2.825853, 49.999996 )     3.61332181
 
    200    -0.182E-13     0.0000010683        3.6133190329       0.40  <-- CONV
        O_D=      0.0118142 O_OD=      0.6864297 O_TOT=      3.6133190 <-- SPRD
 Delta: O_D= -0.2654127E-15 O_OD= -0.1820766E-13 O_TOT= -0.1820766E-13 <-- DLTA
 ------------------------------------------------------------------------------

 Writing checkpoint file graphene.chk... done

 Final State
  WF centre and spread    1  (  0.000000, -0.000000,  9.999999 )     0.95048357
  WF centre and spread    2  (  1.223630,  0.706463,  9.999999 )     0.95048421
  WF centre and spread    3  (  0.611815,  0.353232,  9.999999 )     0.57078413
  WF centre and spread    4  (  1.835445,  0.353231,  9.999999 )     0.57078582
  WF centre and spread    5  (  1.223629,  1.412926,  9.999999 )     0.57078408
  Sum of centres and spreads (  4.894518,  2.825853, 49.999996 )     3.61332181
 
         Spreads (Ang^2)       Omega I      =     2.915075135
        ================       Omega D      =     0.011814227
                               Omega OD     =     0.686429671
    Final Spread (Ang^2)       Omega Total  =     3.613319033
 ------------------------------------------------------------------------------

 Wannier centres written to file graphene_centres.xyz
 
 On-site Hamiltonian matrix elements
     n        <0n|H|0n> (eV)
   -------------------------
     1        -4.140729
     2        -4.140729
     3       -15.242241
     4       -15.242241
     5       -15.242241
 
 Time for wannierise            0.143 (sec)

 Writing checkpoint file graphene.chk... done

 *---------------------------------------------------------------------------*
 |                               PLOTTING                                    |
 *---------------------------------------------------------------------------*
 
 
 Calculating interpolated band-structure
 
 Time to calculate interpolated band structure       0.177 (sec)
 
 Time for plotting              0.897 (sec)
 Total Execution Time           2.066 (sec)

 *===========================================================================*
 |                             TIMING INFORMATION                            |
 *===========================================================================*
 |    Tag                                                Ncalls      Time (s)|
 |---------------------------------------------------------------------------|
 |kmesh: get                                        :         1         0.172|
 |overlap: allocate                                 :         1         0.000|
 |overlap: read                                     :         1         0.515|
 |dis: main                                         :         1         0.298|
 |wann: main                                        :         1         0.143|
 |plot: main                                        :         1         0.897|
 *---------------------------------------------------------------------------*
 
 All done: wannier90 exiting
