
     Program PWSCF v.6.8 starts on  8Nov2021 at 21:57:42 

     This program is part of the open-source Quantum ESPRESSO suite
     for quantum simulation of materials; please cite
         "P. Giannozzi et al., J. Phys.:Condens. Matter 21 395502 (2009);
         "P. Giannozzi et al., J. Phys.:Condens. Matter 29 465901 (2017);
         "P. Giannozzi et al., J. Chem. Phys. 152 154105 (2020);
          URL http://www.quantum-espresso.org", 
     in publications or presentations arising from this work. More details at
     http://www.quantum-espresso.org/quote

     Parallel version (MPI), running on    24 processors

     MPI processes distributed on     1 nodes
     R & G space division:  proc/nbgrp/npool/nimage =      24
     61645 MiB available memory on the printing compute node when the environment starts
 
     Reading input from bands.pwi
Warning: card &IONS ignored
Warning: card / ignored
Warning: card &CELL ignored
Warning: card / ignored

     Current dimensions of program PWSCF are:
     Max number of different atomic species (ntypx) = 10
     Max number of k-points (npk) =  40000
     Max angular momentum in pseudopotentials (lmaxx) =  4

     Atomic positions and unit cell read from directory:
     ./tmp/graphene.save/
     Atomic positions from file used, from input discarded
 
     file C.pz-n-kjpaw_psl.1.0.0.UPF: wavefunction(s)  2S 2P renormalized

     Subspace diagonalization in iterative solution of the eigenvalue problem:
     one sub-group per band group will be used
     scalapack distributed-memory algorithm (size of sub-group:  4*  4 procs)

 
     Parallelization info
     --------------------
     sticks:   dense  smooth     PW     G-vecs:    dense   smooth      PW
     Min          29      15      4                 5159     1821     304
     Max          30      16      5                 5187     1849     333
     Sum         703     361    109               124145    44083    7629
 
     Using Slab Decomposition
 


     bravais-lattice index     =            4
     lattice parameter (alat)  =       4.6247  a.u.
     unit-cell volume          =     700.0316 (a.u.)^3
     number of atoms/cell      =            2
     number of atomic types    =            1
     number of electrons       =         8.00
     number of Kohn-Sham states=           16
     kinetic-energy cutoff     =      60.0000  Ry
     charge density cutoff     =     480.0000  Ry
     Exchange-correlation= SLA  PZ   NOGX NOGC
                           (   1   1   0   0   0   0   0)

     celldm(1)=   4.624652  celldm(2)=   0.000000  celldm(3)=   8.172403
     celldm(4)=   0.000000  celldm(5)=   0.000000  celldm(6)=   0.000000

     crystal axes: (cart. coord. in units of alat)
               a(1) = (   1.000000   0.000000   0.000000 )  
               a(2) = (  -0.500000   0.866025   0.000000 )  
               a(3) = (   0.000000   0.000000   8.172403 )  

     reciprocal axes: (cart. coord. in units 2 pi/alat)
               b(1) = (  1.000000  0.577350  0.000000 )  
               b(2) = (  0.000000  1.154701  0.000000 )  
               b(3) = (  0.000000  0.000000  0.122363 )  


     PseudoPot. # 1 for C  read from file:
     /opt/LDA/C.pz-n-kjpaw_psl.1.0.0.UPF
     MD5 check sum: 15019a788ed847dd19cec0d3328e849a
     Pseudo is Projector augmented-wave + core cor, Zval =  4.0
     Generated using 'atomic' code by A. Dal Corso  v.6.8
     Shape of augmentation charge: PSQ
     Using radial grid of 1073 points,  4 beta functions with: 
                l(1) =   0
                l(2) =   0
                l(3) =   1
                l(4) =   1
     Q(r) pseudized with 0 coefficients 


     atomic species   valence    mass     pseudopotential
        C              4.00    12.01100     C ( 1.00)

     24 Sym. Ops., with inversion, found (12 have fractional translation)


                                    s                        frac. trans.

      isym =  1     identity                                     

 cryst.   s( 1) = (     1          0          0      )
                  (     0          1          0      )
                  (     0          0          1      )

 cart.    s( 1) = (  1.0000000 -0.0000000  0.0000000 )
                  (  0.0000000  1.0000000  0.0000000 )
                  (  0.0000000  0.0000000  1.0000000 )


      isym =  2     180 deg rotation - cart. axis [0,0,1]        

 cryst.   s( 2) = (    -1          0          0      )    f =(  0.3333333 )
                  (     0         -1          0      )       ( -0.3333333 )
                  (     0          0          1      )       (  0.0000000 )

 cart.    s( 2) = ( -1.0000000  0.0000000  0.0000000 )    f =(  0.5000000 )
                  (  0.0000000 -1.0000000  0.0000000 )       ( -0.2886751 )
                  (  0.0000000  0.0000000  1.0000000 )       (  0.0000000 )


      isym =  3     180 deg rotation - cart. axis [0,1,0]        

 cryst.   s( 3) = (    -1          0          0      )
                  (     1          1          0      )
                  (     0          0         -1      )

 cart.    s( 3) = ( -1.0000000 -0.0000000  0.0000000 )
                  (  0.0000000  1.0000000  0.0000000 )
                  (  0.0000000  0.0000000 -1.0000000 )


      isym =  4     180 deg rotation - cart. axis [1,0,0]        

 cryst.   s( 4) = (     1          0          0      )    f =(  0.3333333 )
                  (    -1         -1          0      )       ( -0.3333333 )
                  (     0          0         -1      )       (  0.0000000 )

 cart.    s( 4) = (  1.0000000  0.0000000  0.0000000 )    f =(  0.5000000 )
                  (  0.0000000 -1.0000000  0.0000000 )       ( -0.2886751 )
                  (  0.0000000  0.0000000 -1.0000000 )       (  0.0000000 )


      isym =  5      60 deg rotation - cryst. axis [0,0,1]       

 cryst.   s( 5) = (     1          1          0      )    f =(  0.3333333 )
                  (    -1          0          0      )       ( -0.3333333 )
                  (     0          0          1      )       (  0.0000000 )

 cart.    s( 5) = (  0.5000000 -0.8660254  0.0000000 )    f =(  0.5000000 )
                  (  0.8660254  0.5000000  0.0000000 )       ( -0.2886751 )
                  (  0.0000000  0.0000000  1.0000000 )       (  0.0000000 )


      isym =  6      60 deg rotation - cryst. axis [0,0,-1]      

 cryst.   s( 6) = (     0         -1          0      )    f =(  0.3333333 )
                  (     1          1          0      )       ( -0.3333333 )
                  (     0          0          1      )       (  0.0000000 )

 cart.    s( 6) = (  0.5000000  0.8660254  0.0000000 )    f =(  0.5000000 )
                  ( -0.8660254  0.5000000  0.0000000 )       ( -0.2886751 )
                  (  0.0000000  0.0000000  1.0000000 )       (  0.0000000 )


      isym =  7     120 deg rotation - cryst. axis [0,0,1]       

 cryst.   s( 7) = (     0          1          0      )
                  (    -1         -1          0      )
                  (     0          0          1      )

 cart.    s( 7) = ( -0.5000000 -0.8660254  0.0000000 )
                  (  0.8660254 -0.5000000  0.0000000 )
                  (  0.0000000  0.0000000  1.0000000 )


      isym =  8     120 deg rotation - cryst. axis [0,0,-1]      

 cryst.   s( 8) = (    -1         -1          0      )
                  (     1          0          0      )
                  (     0          0          1      )

 cart.    s( 8) = ( -0.5000000  0.8660254  0.0000000 )
                  ( -0.8660254 -0.5000000  0.0000000 )
                  (  0.0000000  0.0000000  1.0000000 )


      isym =  9     180 deg rotation - cryst. axis [1,-1,0]      

 cryst.   s( 9) = (     0         -1          0      )
                  (    -1          0          0      )
                  (     0          0         -1      )

 cart.    s( 9) = (  0.5000000 -0.8660254  0.0000000 )
                  ( -0.8660254 -0.5000000  0.0000000 )
                  (  0.0000000  0.0000000 -1.0000000 )


      isym = 10     180 deg rotation - cryst. axis [2,1,0]       

 cryst.   s(10) = (     1          1          0      )
                  (     0         -1          0      )
                  (     0          0         -1      )

 cart.    s(10) = (  0.5000000  0.8660254  0.0000000 )
                  (  0.8660254 -0.5000000  0.0000000 )
                  (  0.0000000  0.0000000 -1.0000000 )


      isym = 11     180 deg rotation - cryst. axis [0,1,0]       

 cryst.   s(11) = (    -1         -1          0      )    f =(  0.3333333 )
                  (     0          1          0      )       ( -0.3333333 )
                  (     0          0         -1      )       (  0.0000000 )

 cart.    s(11) = ( -0.5000000 -0.8660254  0.0000000 )    f =(  0.5000000 )
                  ( -0.8660254  0.5000000  0.0000000 )       ( -0.2886751 )
                  (  0.0000000  0.0000000 -1.0000000 )       (  0.0000000 )


      isym = 12     180 deg rotation - cryst. axis [1,1,0]       

 cryst.   s(12) = (     0          1          0      )    f =(  0.3333333 )
                  (     1          0          0      )       ( -0.3333333 )
                  (     0          0         -1      )       (  0.0000000 )

 cart.    s(12) = ( -0.5000000  0.8660254  0.0000000 )    f =(  0.5000000 )
                  (  0.8660254  0.5000000  0.0000000 )       ( -0.2886751 )
                  (  0.0000000  0.0000000 -1.0000000 )       (  0.0000000 )


      isym = 13     inversion                                    

 cryst.   s(13) = (    -1          0          0      )    f =(  0.3333333 )
                  (     0         -1          0      )       ( -0.3333333 )
                  (     0          0         -1      )       (  0.0000000 )

 cart.    s(13) = ( -1.0000000  0.0000000  0.0000000 )    f =(  0.5000000 )
                  (  0.0000000 -1.0000000  0.0000000 )       ( -0.2886751 )
                  (  0.0000000  0.0000000 -1.0000000 )       (  0.0000000 )


      isym = 14     inv. 180 deg rotation - cart. axis [0,0,1]   

 cryst.   s(14) = (     1          0          0      )
                  (     0          1          0      )
                  (     0          0         -1      )

 cart.    s(14) = (  1.0000000 -0.0000000  0.0000000 )
                  (  0.0000000  1.0000000  0.0000000 )
                  (  0.0000000  0.0000000 -1.0000000 )


      isym = 15     inv. 180 deg rotation - cart. axis [0,1,0]   

 cryst.   s(15) = (     1          0          0      )    f =(  0.3333333 )
                  (    -1         -1          0      )       ( -0.3333333 )
                  (     0          0          1      )       (  0.0000000 )

 cart.    s(15) = (  1.0000000  0.0000000  0.0000000 )    f =(  0.5000000 )
                  (  0.0000000 -1.0000000  0.0000000 )       ( -0.2886751 )
                  (  0.0000000  0.0000000  1.0000000 )       (  0.0000000 )


      isym = 16     inv. 180 deg rotation - cart. axis [1,0,0]   

 cryst.   s(16) = (    -1          0          0      )
                  (     1          1          0      )
                  (     0          0          1      )

 cart.    s(16) = ( -1.0000000 -0.0000000  0.0000000 )
                  (  0.0000000  1.0000000  0.0000000 )
                  (  0.0000000  0.0000000  1.0000000 )


      isym = 17     inv.  60 deg rotation - cryst. axis [0,0,1]  

 cryst.   s(17) = (    -1         -1          0      )
                  (     1          0          0      )
                  (     0          0         -1      )

 cart.    s(17) = ( -0.5000000  0.8660254  0.0000000 )
                  ( -0.8660254 -0.5000000  0.0000000 )
                  (  0.0000000  0.0000000 -1.0000000 )


      isym = 18     inv.  60 deg rotation - cryst. axis [0,0,-1] 

 cryst.   s(18) = (     0          1          0      )
                  (    -1         -1          0      )
                  (     0          0         -1      )

 cart.    s(18) = ( -0.5000000 -0.8660254  0.0000000 )
                  (  0.8660254 -0.5000000  0.0000000 )
                  (  0.0000000  0.0000000 -1.0000000 )


      isym = 19     inv. 120 deg rotation - cryst. axis [0,0,1]  

 cryst.   s(19) = (     0         -1          0      )    f =(  0.3333333 )
                  (     1          1          0      )       ( -0.3333333 )
                  (     0          0         -1      )       (  0.0000000 )

 cart.    s(19) = (  0.5000000  0.8660254  0.0000000 )    f =(  0.5000000 )
                  ( -0.8660254  0.5000000  0.0000000 )       ( -0.2886751 )
                  (  0.0000000  0.0000000 -1.0000000 )       (  0.0000000 )


      isym = 20     inv. 120 deg rotation - cryst. axis [0,0,-1] 

 cryst.   s(20) = (     1          1          0      )    f =(  0.3333333 )
                  (    -1          0          0      )       ( -0.3333333 )
                  (     0          0         -1      )       (  0.0000000 )

 cart.    s(20) = (  0.5000000 -0.8660254  0.0000000 )    f =(  0.5000000 )
                  (  0.8660254  0.5000000  0.0000000 )       ( -0.2886751 )
                  (  0.0000000  0.0000000 -1.0000000 )       (  0.0000000 )


      isym = 21     inv. 180 deg rotation - cryst. axis [1,-1,0] 

 cryst.   s(21) = (     0          1          0      )    f =(  0.3333333 )
                  (     1          0          0      )       ( -0.3333333 )
                  (     0          0          1      )       (  0.0000000 )

 cart.    s(21) = ( -0.5000000  0.8660254  0.0000000 )    f =(  0.5000000 )
                  (  0.8660254  0.5000000  0.0000000 )       ( -0.2886751 )
                  (  0.0000000  0.0000000  1.0000000 )       (  0.0000000 )


      isym = 22     inv. 180 deg rotation - cryst. axis [2,1,0]  

 cryst.   s(22) = (    -1         -1          0      )    f =(  0.3333333 )
                  (     0          1          0      )       ( -0.3333333 )
                  (     0          0          1      )       (  0.0000000 )

 cart.    s(22) = ( -0.5000000 -0.8660254  0.0000000 )    f =(  0.5000000 )
                  ( -0.8660254  0.5000000  0.0000000 )       ( -0.2886751 )
                  (  0.0000000  0.0000000  1.0000000 )       (  0.0000000 )


      isym = 23     inv. 180 deg rotation - cryst. axis [0,1,0]  

 cryst.   s(23) = (     1          1          0      )
                  (     0         -1          0      )
                  (     0          0          1      )

 cart.    s(23) = (  0.5000000  0.8660254  0.0000000 )
                  (  0.8660254 -0.5000000  0.0000000 )
                  (  0.0000000  0.0000000  1.0000000 )


      isym = 24     inv. 180 deg rotation - cryst. axis [1,1,0]  

 cryst.   s(24) = (     0         -1          0      )
                  (    -1          0          0      )
                  (     0          0          1      )

 cart.    s(24) = (  0.5000000 -0.8660254  0.0000000 )
                  ( -0.8660254 -0.5000000  0.0000000 )
                  (  0.0000000  0.0000000  1.0000000 )


     point group D_6h(6/mmm)
     there are 12 classes
     the character table:

       E     2C6   2C3   C2    3C2'  3C2'' i     2S3   2S6   s_h   3s_d  3s_v 
A_1g   1.00  1.00  1.00  1.00  1.00  1.00  1.00  1.00  1.00  1.00  1.00  1.00
A_2g   1.00  1.00  1.00  1.00 -1.00 -1.00  1.00  1.00  1.00  1.00 -1.00 -1.00
B_1g   1.00 -1.00  1.00 -1.00  1.00 -1.00  1.00 -1.00  1.00 -1.00  1.00 -1.00
B_2g   1.00 -1.00  1.00 -1.00 -1.00  1.00  1.00 -1.00  1.00 -1.00 -1.00  1.00
E_1g   2.00  1.00 -1.00 -2.00  0.00  0.00  2.00  1.00 -1.00 -2.00  0.00  0.00
E_2g   2.00 -1.00 -1.00  2.00  0.00  0.00  2.00 -1.00 -1.00  2.00  0.00  0.00
A_1u   1.00  1.00  1.00  1.00  1.00  1.00 -1.00 -1.00 -1.00 -1.00 -1.00 -1.00
A_2u   1.00  1.00  1.00  1.00 -1.00 -1.00 -1.00 -1.00 -1.00 -1.00  1.00  1.00
B_1u   1.00 -1.00  1.00 -1.00  1.00 -1.00 -1.00  1.00 -1.00  1.00 -1.00  1.00
B_2u   1.00 -1.00  1.00 -1.00 -1.00  1.00 -1.00  1.00 -1.00  1.00  1.00 -1.00
E_1u   2.00  1.00 -1.00 -2.00  0.00  0.00 -2.00 -1.00  1.00  2.00  0.00  0.00
E_2u   2.00 -1.00 -1.00  2.00  0.00  0.00 -2.00  1.00  1.00 -2.00  0.00  0.00

     the symmetry operations in each class and the name of the first element:

     E        1
          identity                                               
     2C6      5    6
           60 deg rotation - cryst. axis [0,0,1]                 
     2C3      7    8
          120 deg rotation - cryst. axis [0,0,1]                 
     C2       2
          180 deg rotation - cart. axis [0,0,1]                  
     3C2'     4   12   11
          180 deg rotation - cart. axis [1,0,0]                  
     3C2''    3    9   10
          180 deg rotation - cart. axis [0,1,0]                  
     i       13
          inversion                                              
     2S3     17   18
          inv.  60 deg rotation - cryst. axis [0,0,1]            
     2S6     19   20
          inv. 120 deg rotation - cryst. axis [0,0,1]            
     s_h     14
          inv. 180 deg rotation - cart. axis [0,0,1]             
     3s_d    16   24   23
          inv. 180 deg rotation - cart. axis [1,0,0]             
     3s_v    15   21   22
          inv. 180 deg rotation - cart. axis [0,1,0]             

   Cartesian axes

     site n.     atom                  positions (alat units)
         1           C   tau(   1) = (   0.0000000   0.0000000   4.0862017  )
         2           C   tau(   2) = (   0.5000000   0.2886751   4.0862017  )

   Crystallographic axes

     site n.     atom                  positions (cryst. coord.)
         1           C   tau(   1) = (  0.0000000  0.0000000  0.5000000  )
         2           C   tau(   2) = (  0.6666667  0.3333333  0.5000000  )

     number of k points=   238  Gaussian smearing, width (Ry)=  0.1000
                       cart. coord. in units 2pi/alat
        k(    1) = (   0.0000000   0.0000000   0.0000000), wk =   0.0084034
        k(    2) = (   0.0033333   0.0057735   0.0000000), wk =   0.0084034
        k(    3) = (   0.0066667   0.0115470   0.0000000), wk =   0.0084034
        k(    4) = (   0.0100000   0.0173205   0.0000000), wk =   0.0084034
        k(    5) = (   0.0133333   0.0230940   0.0000000), wk =   0.0084034
        k(    6) = (   0.0166667   0.0288675   0.0000000), wk =   0.0084034
        k(    7) = (   0.0200000   0.0346410   0.0000000), wk =   0.0084034
        k(    8) = (   0.0233333   0.0404145   0.0000000), wk =   0.0084034
        k(    9) = (   0.0266667   0.0461880   0.0000000), wk =   0.0084034
        k(   10) = (   0.0300000   0.0519615   0.0000000), wk =   0.0084034
        k(   11) = (   0.0333333   0.0577350   0.0000000), wk =   0.0084034
        k(   12) = (   0.0366667   0.0635085   0.0000000), wk =   0.0084034
        k(   13) = (   0.0400000   0.0692820   0.0000000), wk =   0.0084034
        k(   14) = (   0.0433333   0.0750555   0.0000000), wk =   0.0084034
        k(   15) = (   0.0466667   0.0808290   0.0000000), wk =   0.0084034
        k(   16) = (   0.0500000   0.0866025   0.0000000), wk =   0.0084034
        k(   17) = (   0.0533333   0.0923760   0.0000000), wk =   0.0084034
        k(   18) = (   0.0566667   0.0981495   0.0000000), wk =   0.0084034
        k(   19) = (   0.0600000   0.1039230   0.0000000), wk =   0.0084034
        k(   20) = (   0.0633333   0.1096966   0.0000000), wk =   0.0084034
        k(   21) = (   0.0666667   0.1154701   0.0000000), wk =   0.0084034
        k(   22) = (   0.0700000   0.1212436   0.0000000), wk =   0.0084034
        k(   23) = (   0.0733333   0.1270171   0.0000000), wk =   0.0084034
        k(   24) = (   0.0766667   0.1327906   0.0000000), wk =   0.0084034
        k(   25) = (   0.0800000   0.1385641   0.0000000), wk =   0.0084034
        k(   26) = (   0.0833333   0.1443376   0.0000000), wk =   0.0084034
        k(   27) = (   0.0866667   0.1501111   0.0000000), wk =   0.0084034
        k(   28) = (   0.0900000   0.1558846   0.0000000), wk =   0.0084034
        k(   29) = (   0.0933333   0.1616581   0.0000000), wk =   0.0084034
        k(   30) = (   0.0966667   0.1674316   0.0000000), wk =   0.0084034
        k(   31) = (   0.1000000   0.1732051   0.0000000), wk =   0.0084034
        k(   32) = (   0.1033333   0.1789786   0.0000000), wk =   0.0084034
        k(   33) = (   0.1066667   0.1847521   0.0000000), wk =   0.0084034
        k(   34) = (   0.1100000   0.1905256   0.0000000), wk =   0.0084034
        k(   35) = (   0.1133333   0.1962991   0.0000000), wk =   0.0084034
        k(   36) = (   0.1166667   0.2020726   0.0000000), wk =   0.0084034
        k(   37) = (   0.1200000   0.2078461   0.0000000), wk =   0.0084034
        k(   38) = (   0.1233333   0.2136196   0.0000000), wk =   0.0084034
        k(   39) = (   0.1266667   0.2193931   0.0000000), wk =   0.0084034
        k(   40) = (   0.1300000   0.2251666   0.0000000), wk =   0.0084034
        k(   41) = (   0.1333333   0.2309401   0.0000000), wk =   0.0084034
        k(   42) = (   0.1366667   0.2367136   0.0000000), wk =   0.0084034
        k(   43) = (   0.1400000   0.2424871   0.0000000), wk =   0.0084034
        k(   44) = (   0.1433333   0.2482606   0.0000000), wk =   0.0084034
        k(   45) = (   0.1466667   0.2540341   0.0000000), wk =   0.0084034
        k(   46) = (   0.1500000   0.2598076   0.0000000), wk =   0.0084034
        k(   47) = (   0.1533333   0.2655811   0.0000000), wk =   0.0084034
        k(   48) = (   0.1566667   0.2713546   0.0000000), wk =   0.0084034
        k(   49) = (   0.1600000   0.2771281   0.0000000), wk =   0.0084034
        k(   50) = (   0.1633333   0.2829016   0.0000000), wk =   0.0084034
        k(   51) = (   0.1666667   0.2886751   0.0000000), wk =   0.0084034
        k(   52) = (   0.1700000   0.2944486   0.0000000), wk =   0.0084034
        k(   53) = (   0.1733333   0.3002221   0.0000000), wk =   0.0084034
        k(   54) = (   0.1766667   0.3059956   0.0000000), wk =   0.0084034
        k(   55) = (   0.1800000   0.3117691   0.0000000), wk =   0.0084034
        k(   56) = (   0.1833333   0.3175426   0.0000000), wk =   0.0084034
        k(   57) = (   0.1866667   0.3233162   0.0000000), wk =   0.0084034
        k(   58) = (   0.1900000   0.3290897   0.0000000), wk =   0.0084034
        k(   59) = (   0.1933333   0.3348632   0.0000000), wk =   0.0084034
        k(   60) = (   0.1966667   0.3406367   0.0000000), wk =   0.0084034
        k(   61) = (   0.2000000   0.3464102   0.0000000), wk =   0.0084034
        k(   62) = (   0.2033333   0.3521837   0.0000000), wk =   0.0084034
        k(   63) = (   0.2066667   0.3579572   0.0000000), wk =   0.0084034
        k(   64) = (   0.2100000   0.3637307   0.0000000), wk =   0.0084034
        k(   65) = (   0.2133333   0.3695042   0.0000000), wk =   0.0084034
        k(   66) = (   0.2166667   0.3752777   0.0000000), wk =   0.0084034
        k(   67) = (   0.2200000   0.3810512   0.0000000), wk =   0.0084034
        k(   68) = (   0.2233333   0.3868247   0.0000000), wk =   0.0084034
        k(   69) = (   0.2266667   0.3925982   0.0000000), wk =   0.0084034
        k(   70) = (   0.2300000   0.3983717   0.0000000), wk =   0.0084034
        k(   71) = (   0.2333333   0.4041452   0.0000000), wk =   0.0084034
        k(   72) = (   0.2366667   0.4099187   0.0000000), wk =   0.0084034
        k(   73) = (   0.2400000   0.4156922   0.0000000), wk =   0.0084034
        k(   74) = (   0.2433333   0.4214657   0.0000000), wk =   0.0084034
        k(   75) = (   0.2466667   0.4272392   0.0000000), wk =   0.0084034
        k(   76) = (   0.2500000   0.4330127   0.0000000), wk =   0.0084034
        k(   77) = (   0.2533333   0.4387862   0.0000000), wk =   0.0084034
        k(   78) = (   0.2566667   0.4445597   0.0000000), wk =   0.0084034
        k(   79) = (   0.2600000   0.4503332   0.0000000), wk =   0.0084034
        k(   80) = (   0.2633333   0.4561067   0.0000000), wk =   0.0084034
        k(   81) = (   0.2666667   0.4618802   0.0000000), wk =   0.0084034
        k(   82) = (   0.2700000   0.4676537   0.0000000), wk =   0.0084034
        k(   83) = (   0.2733333   0.4734272   0.0000000), wk =   0.0084034
        k(   84) = (   0.2766667   0.4792007   0.0000000), wk =   0.0084034
        k(   85) = (   0.2800000   0.4849742   0.0000000), wk =   0.0084034
        k(   86) = (   0.2833333   0.4907477   0.0000000), wk =   0.0084034
        k(   87) = (   0.2866667   0.4965212   0.0000000), wk =   0.0084034
        k(   88) = (   0.2900000   0.5022947   0.0000000), wk =   0.0084034
        k(   89) = (   0.2933333   0.5080682   0.0000000), wk =   0.0084034
        k(   90) = (   0.2966667   0.5138417   0.0000000), wk =   0.0084034
        k(   91) = (   0.3000000   0.5196152   0.0000000), wk =   0.0084034
        k(   92) = (   0.3033333   0.5253887   0.0000000), wk =   0.0084034
        k(   93) = (   0.3066667   0.5311622   0.0000000), wk =   0.0084034
        k(   94) = (   0.3100000   0.5369358   0.0000000), wk =   0.0084034
        k(   95) = (   0.3133333   0.5427093   0.0000000), wk =   0.0084034
        k(   96) = (   0.3166667   0.5484828   0.0000000), wk =   0.0084034
        k(   97) = (   0.3200000   0.5542563   0.0000000), wk =   0.0084034
        k(   98) = (   0.3233333   0.5600298   0.0000000), wk =   0.0084034
        k(   99) = (   0.3266667   0.5658033   0.0000000), wk =   0.0084034
        k(  100) = (   0.3300000   0.5715768   0.0000000), wk =   0.0084034
        k(  101) = (   0.3333333   0.5773503   0.0000000), wk =   0.0084034
        k(  102) = (   0.3366667   0.5715768   0.0000000), wk =   0.0084034
        k(  103) = (   0.3400000   0.5658033   0.0000000), wk =   0.0084034
        k(  104) = (   0.3433333   0.5600298   0.0000000), wk =   0.0084034
        k(  105) = (   0.3466667   0.5542563   0.0000000), wk =   0.0084034
        k(  106) = (   0.3500000   0.5484828   0.0000000), wk =   0.0084034
        k(  107) = (   0.3533333   0.5427093   0.0000000), wk =   0.0084034
        k(  108) = (   0.3566667   0.5369358   0.0000000), wk =   0.0084034
        k(  109) = (   0.3600000   0.5311622   0.0000000), wk =   0.0084034
        k(  110) = (   0.3633333   0.5253887   0.0000000), wk =   0.0084034
        k(  111) = (   0.3666667   0.5196152   0.0000000), wk =   0.0084034
        k(  112) = (   0.3700000   0.5138417   0.0000000), wk =   0.0084034
        k(  113) = (   0.3733333   0.5080682   0.0000000), wk =   0.0084034
        k(  114) = (   0.3766667   0.5022947   0.0000000), wk =   0.0084034
        k(  115) = (   0.3800000   0.4965212   0.0000000), wk =   0.0084034
        k(  116) = (   0.3833333   0.4907477   0.0000000), wk =   0.0084034
        k(  117) = (   0.3866667   0.4849742   0.0000000), wk =   0.0084034
        k(  118) = (   0.3900000   0.4792007   0.0000000), wk =   0.0084034
        k(  119) = (   0.3933333   0.4734272   0.0000000), wk =   0.0084034
        k(  120) = (   0.3966667   0.4676537   0.0000000), wk =   0.0084034
        k(  121) = (   0.4000000   0.4618802   0.0000000), wk =   0.0084034
        k(  122) = (   0.4033333   0.4561067   0.0000000), wk =   0.0084034
        k(  123) = (   0.4066667   0.4503332   0.0000000), wk =   0.0084034
        k(  124) = (   0.4100000   0.4445597   0.0000000), wk =   0.0084034
        k(  125) = (   0.4133333   0.4387862   0.0000000), wk =   0.0084034
        k(  126) = (   0.4166667   0.4330127   0.0000000), wk =   0.0084034
        k(  127) = (   0.4200000   0.4272392   0.0000000), wk =   0.0084034
        k(  128) = (   0.4233333   0.4214657   0.0000000), wk =   0.0084034
        k(  129) = (   0.4266667   0.4156922   0.0000000), wk =   0.0084034
        k(  130) = (   0.4300000   0.4099187   0.0000000), wk =   0.0084034
        k(  131) = (   0.4333333   0.4041452   0.0000000), wk =   0.0084034
        k(  132) = (   0.4366667   0.3983717   0.0000000), wk =   0.0084034
        k(  133) = (   0.4400000   0.3925982   0.0000000), wk =   0.0084034
        k(  134) = (   0.4433333   0.3868247   0.0000000), wk =   0.0084034
        k(  135) = (   0.4466667   0.3810512   0.0000000), wk =   0.0084034
        k(  136) = (   0.4500000   0.3752777   0.0000000), wk =   0.0084034
        k(  137) = (   0.4533333   0.3695042   0.0000000), wk =   0.0084034
        k(  138) = (   0.4566667   0.3637307   0.0000000), wk =   0.0084034
        k(  139) = (   0.4600000   0.3579572   0.0000000), wk =   0.0084034
        k(  140) = (   0.4633333   0.3521837   0.0000000), wk =   0.0084034
        k(  141) = (   0.4666667   0.3464102   0.0000000), wk =   0.0084034
        k(  142) = (   0.4700000   0.3406367   0.0000000), wk =   0.0084034
        k(  143) = (   0.4733333   0.3348632   0.0000000), wk =   0.0084034
        k(  144) = (   0.4766667   0.3290897   0.0000000), wk =   0.0084034
        k(  145) = (   0.4800000   0.3233162   0.0000000), wk =   0.0084034
        k(  146) = (   0.4833333   0.3175426   0.0000000), wk =   0.0084034
        k(  147) = (   0.4866667   0.3117691   0.0000000), wk =   0.0084034
        k(  148) = (   0.4900000   0.3059956   0.0000000), wk =   0.0084034
        k(  149) = (   0.4933333   0.3002221   0.0000000), wk =   0.0084034
        k(  150) = (   0.4966667   0.2944486   0.0000000), wk =   0.0084034
        k(  151) = (   0.5000000   0.2886751   0.0000000), wk =   0.0084034
        k(  152) = (   0.4942529   0.2853570   0.0000000), wk =   0.0084034
        k(  153) = (   0.4885057   0.2820389   0.0000000), wk =   0.0084034
        k(  154) = (   0.4827586   0.2787208   0.0000000), wk =   0.0084034
        k(  155) = (   0.4770115   0.2754027   0.0000000), wk =   0.0084034
        k(  156) = (   0.4712644   0.2720846   0.0000000), wk =   0.0084034
        k(  157) = (   0.4655172   0.2687665   0.0000000), wk =   0.0084034
        k(  158) = (   0.4597701   0.2654484   0.0000000), wk =   0.0084034
        k(  159) = (   0.4540230   0.2621303   0.0000000), wk =   0.0084034
        k(  160) = (   0.4482759   0.2588122   0.0000000), wk =   0.0084034
        k(  161) = (   0.4425287   0.2554941   0.0000000), wk =   0.0084034
        k(  162) = (   0.4367816   0.2521760   0.0000000), wk =   0.0084034
        k(  163) = (   0.4310345   0.2488579   0.0000000), wk =   0.0084034
        k(  164) = (   0.4252874   0.2455398   0.0000000), wk =   0.0084034
        k(  165) = (   0.4195402   0.2422217   0.0000000), wk =   0.0084034
        k(  166) = (   0.4137931   0.2389036   0.0000000), wk =   0.0084034
        k(  167) = (   0.4080460   0.2355855   0.0000000), wk =   0.0084034
        k(  168) = (   0.4022989   0.2322673   0.0000000), wk =   0.0084034
        k(  169) = (   0.3965517   0.2289492   0.0000000), wk =   0.0084034
        k(  170) = (   0.3908046   0.2256311   0.0000000), wk =   0.0084034
        k(  171) = (   0.3850575   0.2223130   0.0000000), wk =   0.0084034
        k(  172) = (   0.3793103   0.2189949   0.0000000), wk =   0.0084034
        k(  173) = (   0.3735632   0.2156768   0.0000000), wk =   0.0084034
        k(  174) = (   0.3678161   0.2123587   0.0000000), wk =   0.0084034
        k(  175) = (   0.3620690   0.2090406   0.0000000), wk =   0.0084034
        k(  176) = (   0.3563218   0.2057225   0.0000000), wk =   0.0084034
        k(  177) = (   0.3505747   0.2024044   0.0000000), wk =   0.0084034
        k(  178) = (   0.3448276   0.1990863   0.0000000), wk =   0.0084034
        k(  179) = (   0.3390805   0.1957682   0.0000000), wk =   0.0084034
        k(  180) = (   0.3333333   0.1924501   0.0000000), wk =   0.0084034
        k(  181) = (   0.3275862   0.1891320   0.0000000), wk =   0.0084034
        k(  182) = (   0.3218391   0.1858139   0.0000000), wk =   0.0084034
        k(  183) = (   0.3160920   0.1824958   0.0000000), wk =   0.0084034
        k(  184) = (   0.3103448   0.1791777   0.0000000), wk =   0.0084034
        k(  185) = (   0.3045977   0.1758596   0.0000000), wk =   0.0084034
        k(  186) = (   0.2988506   0.1725415   0.0000000), wk =   0.0084034
        k(  187) = (   0.2931034   0.1692234   0.0000000), wk =   0.0084034
        k(  188) = (   0.2873563   0.1659052   0.0000000), wk =   0.0084034
        k(  189) = (   0.2816092   0.1625871   0.0000000), wk =   0.0084034
        k(  190) = (   0.2758621   0.1592690   0.0000000), wk =   0.0084034
        k(  191) = (   0.2701149   0.1559509   0.0000000), wk =   0.0084034
        k(  192) = (   0.2643678   0.1526328   0.0000000), wk =   0.0084034
        k(  193) = (   0.2586207   0.1493147   0.0000000), wk =   0.0084034
        k(  194) = (   0.2528736   0.1459966   0.0000000), wk =   0.0084034
        k(  195) = (   0.2471264   0.1426785   0.0000000), wk =   0.0084034
        k(  196) = (   0.2413793   0.1393604   0.0000000), wk =   0.0084034
        k(  197) = (   0.2356322   0.1360423   0.0000000), wk =   0.0084034
        k(  198) = (   0.2298851   0.1327242   0.0000000), wk =   0.0084034
        k(  199) = (   0.2241379   0.1294061   0.0000000), wk =   0.0084034
        k(  200) = (   0.2183908   0.1260880   0.0000000), wk =   0.0084034
        k(  201) = (   0.2126437   0.1227699   0.0000000), wk =   0.0084034
        k(  202) = (   0.2068966   0.1194518   0.0000000), wk =   0.0084034
        k(  203) = (   0.2011494   0.1161337   0.0000000), wk =   0.0084034
        k(  204) = (   0.1954023   0.1128156   0.0000000), wk =   0.0084034
        k(  205) = (   0.1896552   0.1094975   0.0000000), wk =   0.0084034
        k(  206) = (   0.1839080   0.1061794   0.0000000), wk =   0.0084034
        k(  207) = (   0.1781609   0.1028613   0.0000000), wk =   0.0084034
        k(  208) = (   0.1724138   0.0995431   0.0000000), wk =   0.0084034
        k(  209) = (   0.1666667   0.0962250   0.0000000), wk =   0.0084034
        k(  210) = (   0.1609195   0.0929069   0.0000000), wk =   0.0084034
        k(  211) = (   0.1551724   0.0895888   0.0000000), wk =   0.0084034
        k(  212) = (   0.1494253   0.0862707   0.0000000), wk =   0.0084034
        k(  213) = (   0.1436782   0.0829526   0.0000000), wk =   0.0084034
        k(  214) = (   0.1379310   0.0796345   0.0000000), wk =   0.0084034
        k(  215) = (   0.1321839   0.0763164   0.0000000), wk =   0.0084034
        k(  216) = (   0.1264368   0.0729983   0.0000000), wk =   0.0084034
        k(  217) = (   0.1206897   0.0696802   0.0000000), wk =   0.0084034
        k(  218) = (   0.1149425   0.0663621   0.0000000), wk =   0.0084034
        k(  219) = (   0.1091954   0.0630440   0.0000000), wk =   0.0084034
        k(  220) = (   0.1034483   0.0597259   0.0000000), wk =   0.0084034
        k(  221) = (   0.0977011   0.0564078   0.0000000), wk =   0.0084034
        k(  222) = (   0.0919540   0.0530897   0.0000000), wk =   0.0084034
        k(  223) = (   0.0862069   0.0497716   0.0000000), wk =   0.0084034
        k(  224) = (   0.0804598   0.0464535   0.0000000), wk =   0.0084034
        k(  225) = (   0.0747126   0.0431354   0.0000000), wk =   0.0084034
        k(  226) = (   0.0689655   0.0398173   0.0000000), wk =   0.0084034
        k(  227) = (   0.0632184   0.0364992   0.0000000), wk =   0.0084034
        k(  228) = (   0.0574713   0.0331810   0.0000000), wk =   0.0084034
        k(  229) = (   0.0517241   0.0298629   0.0000000), wk =   0.0084034
        k(  230) = (   0.0459770   0.0265448   0.0000000), wk =   0.0084034
        k(  231) = (   0.0402299   0.0232267   0.0000000), wk =   0.0084034
        k(  232) = (   0.0344828   0.0199086   0.0000000), wk =   0.0084034
        k(  233) = (   0.0287356   0.0165905   0.0000000), wk =   0.0084034
        k(  234) = (   0.0229885   0.0132724   0.0000000), wk =   0.0084034
        k(  235) = (   0.0172414   0.0099543   0.0000000), wk =   0.0084034
        k(  236) = (   0.0114943   0.0066362   0.0000000), wk =   0.0084034
        k(  237) = (   0.0057471   0.0033181   0.0000000), wk =   0.0084034
        k(  238) = (   0.0000000   0.0000000   0.0000000), wk =   0.0084034

                       cryst. coord.
        k(    1) = (   0.0000000   0.0000000   0.0000000), wk =   0.0084034
        k(    2) = (   0.0033333   0.0033333   0.0000000), wk =   0.0084034
        k(    3) = (   0.0066667   0.0066667   0.0000000), wk =   0.0084034
        k(    4) = (   0.0100000   0.0100000   0.0000000), wk =   0.0084034
        k(    5) = (   0.0133333   0.0133333   0.0000000), wk =   0.0084034
        k(    6) = (   0.0166667   0.0166667   0.0000000), wk =   0.0084034
        k(    7) = (   0.0200000   0.0200000   0.0000000), wk =   0.0084034
        k(    8) = (   0.0233333   0.0233333   0.0000000), wk =   0.0084034
        k(    9) = (   0.0266667   0.0266667   0.0000000), wk =   0.0084034
        k(   10) = (   0.0300000   0.0300000   0.0000000), wk =   0.0084034
        k(   11) = (   0.0333333   0.0333333   0.0000000), wk =   0.0084034
        k(   12) = (   0.0366667   0.0366667   0.0000000), wk =   0.0084034
        k(   13) = (   0.0400000   0.0400000   0.0000000), wk =   0.0084034
        k(   14) = (   0.0433333   0.0433333   0.0000000), wk =   0.0084034
        k(   15) = (   0.0466667   0.0466667   0.0000000), wk =   0.0084034
        k(   16) = (   0.0500000   0.0500000   0.0000000), wk =   0.0084034
        k(   17) = (   0.0533333   0.0533333   0.0000000), wk =   0.0084034
        k(   18) = (   0.0566667   0.0566667   0.0000000), wk =   0.0084034
        k(   19) = (   0.0600000   0.0600000   0.0000000), wk =   0.0084034
        k(   20) = (   0.0633333   0.0633333   0.0000000), wk =   0.0084034
        k(   21) = (   0.0666667   0.0666667   0.0000000), wk =   0.0084034
        k(   22) = (   0.0700000   0.0700000   0.0000000), wk =   0.0084034
        k(   23) = (   0.0733333   0.0733333   0.0000000), wk =   0.0084034
        k(   24) = (   0.0766667   0.0766667   0.0000000), wk =   0.0084034
        k(   25) = (   0.0800000   0.0800000   0.0000000), wk =   0.0084034
        k(   26) = (   0.0833333   0.0833333   0.0000000), wk =   0.0084034
        k(   27) = (   0.0866667   0.0866667   0.0000000), wk =   0.0084034
        k(   28) = (   0.0900000   0.0900000   0.0000000), wk =   0.0084034
        k(   29) = (   0.0933333   0.0933333   0.0000000), wk =   0.0084034
        k(   30) = (   0.0966667   0.0966667   0.0000000), wk =   0.0084034
        k(   31) = (   0.1000000   0.1000000   0.0000000), wk =   0.0084034
        k(   32) = (   0.1033333   0.1033333   0.0000000), wk =   0.0084034
        k(   33) = (   0.1066667   0.1066667   0.0000000), wk =   0.0084034
        k(   34) = (   0.1100000   0.1100000   0.0000000), wk =   0.0084034
        k(   35) = (   0.1133333   0.1133333   0.0000000), wk =   0.0084034
        k(   36) = (   0.1166667   0.1166667   0.0000000), wk =   0.0084034
        k(   37) = (   0.1200000   0.1200000   0.0000000), wk =   0.0084034
        k(   38) = (   0.1233333   0.1233333   0.0000000), wk =   0.0084034
        k(   39) = (   0.1266667   0.1266667   0.0000000), wk =   0.0084034
        k(   40) = (   0.1300000   0.1300000   0.0000000), wk =   0.0084034
        k(   41) = (   0.1333333   0.1333333   0.0000000), wk =   0.0084034
        k(   42) = (   0.1366667   0.1366667   0.0000000), wk =   0.0084034
        k(   43) = (   0.1400000   0.1400000   0.0000000), wk =   0.0084034
        k(   44) = (   0.1433333   0.1433333   0.0000000), wk =   0.0084034
        k(   45) = (   0.1466667   0.1466667   0.0000000), wk =   0.0084034
        k(   46) = (   0.1500000   0.1500000   0.0000000), wk =   0.0084034
        k(   47) = (   0.1533333   0.1533333   0.0000000), wk =   0.0084034
        k(   48) = (   0.1566667   0.1566667   0.0000000), wk =   0.0084034
        k(   49) = (   0.1600000   0.1600000   0.0000000), wk =   0.0084034
        k(   50) = (   0.1633333   0.1633333   0.0000000), wk =   0.0084034
        k(   51) = (   0.1666667   0.1666667   0.0000000), wk =   0.0084034
        k(   52) = (   0.1700000   0.1700000   0.0000000), wk =   0.0084034
        k(   53) = (   0.1733333   0.1733333   0.0000000), wk =   0.0084034
        k(   54) = (   0.1766667   0.1766667   0.0000000), wk =   0.0084034
        k(   55) = (   0.1800000   0.1800000   0.0000000), wk =   0.0084034
        k(   56) = (   0.1833333   0.1833333   0.0000000), wk =   0.0084034
        k(   57) = (   0.1866667   0.1866667   0.0000000), wk =   0.0084034
        k(   58) = (   0.1900000   0.1900000   0.0000000), wk =   0.0084034
        k(   59) = (   0.1933333   0.1933333   0.0000000), wk =   0.0084034
        k(   60) = (   0.1966667   0.1966667   0.0000000), wk =   0.0084034
        k(   61) = (   0.2000000   0.2000000   0.0000000), wk =   0.0084034
        k(   62) = (   0.2033333   0.2033333   0.0000000), wk =   0.0084034
        k(   63) = (   0.2066667   0.2066667   0.0000000), wk =   0.0084034
        k(   64) = (   0.2100000   0.2100000   0.0000000), wk =   0.0084034
        k(   65) = (   0.2133333   0.2133333   0.0000000), wk =   0.0084034
        k(   66) = (   0.2166667   0.2166667   0.0000000), wk =   0.0084034
        k(   67) = (   0.2200000   0.2200000   0.0000000), wk =   0.0084034
        k(   68) = (   0.2233333   0.2233333   0.0000000), wk =   0.0084034
        k(   69) = (   0.2266667   0.2266667   0.0000000), wk =   0.0084034
        k(   70) = (   0.2300000   0.2300000   0.0000000), wk =   0.0084034
        k(   71) = (   0.2333333   0.2333333   0.0000000), wk =   0.0084034
        k(   72) = (   0.2366667   0.2366667   0.0000000), wk =   0.0084034
        k(   73) = (   0.2400000   0.2400000   0.0000000), wk =   0.0084034
        k(   74) = (   0.2433333   0.2433333   0.0000000), wk =   0.0084034
        k(   75) = (   0.2466667   0.2466667   0.0000000), wk =   0.0084034
        k(   76) = (   0.2500000   0.2500000   0.0000000), wk =   0.0084034
        k(   77) = (   0.2533333   0.2533333   0.0000000), wk =   0.0084034
        k(   78) = (   0.2566667   0.2566667   0.0000000), wk =   0.0084034
        k(   79) = (   0.2600000   0.2600000   0.0000000), wk =   0.0084034
        k(   80) = (   0.2633333   0.2633333   0.0000000), wk =   0.0084034
        k(   81) = (   0.2666667   0.2666667   0.0000000), wk =   0.0084034
        k(   82) = (   0.2700000   0.2700000   0.0000000), wk =   0.0084034
        k(   83) = (   0.2733333   0.2733333   0.0000000), wk =   0.0084034
        k(   84) = (   0.2766667   0.2766667   0.0000000), wk =   0.0084034
        k(   85) = (   0.2800000   0.2800000   0.0000000), wk =   0.0084034
        k(   86) = (   0.2833333   0.2833333   0.0000000), wk =   0.0084034
        k(   87) = (   0.2866667   0.2866667   0.0000000), wk =   0.0084034
        k(   88) = (   0.2900000   0.2900000   0.0000000), wk =   0.0084034
        k(   89) = (   0.2933333   0.2933333   0.0000000), wk =   0.0084034
        k(   90) = (   0.2966667   0.2966667   0.0000000), wk =   0.0084034
        k(   91) = (   0.3000000   0.3000000   0.0000000), wk =   0.0084034
        k(   92) = (   0.3033333   0.3033333   0.0000000), wk =   0.0084034
        k(   93) = (   0.3066667   0.3066667   0.0000000), wk =   0.0084034
        k(   94) = (   0.3100000   0.3100000   0.0000000), wk =   0.0084034
        k(   95) = (   0.3133333   0.3133333   0.0000000), wk =   0.0084034
        k(   96) = (   0.3166667   0.3166667   0.0000000), wk =   0.0084034
        k(   97) = (   0.3200000   0.3200000   0.0000000), wk =   0.0084034
        k(   98) = (   0.3233333   0.3233333   0.0000000), wk =   0.0084034
        k(   99) = (   0.3266667   0.3266667   0.0000000), wk =   0.0084034
        k(  100) = (   0.3300000   0.3300000   0.0000000), wk =   0.0084034
        k(  101) = (   0.3333333   0.3333333   0.0000000), wk =   0.0084034
        k(  102) = (   0.3366667   0.3266667   0.0000000), wk =   0.0084034
        k(  103) = (   0.3400000   0.3200000   0.0000000), wk =   0.0084034
        k(  104) = (   0.3433333   0.3133333   0.0000000), wk =   0.0084034
        k(  105) = (   0.3466667   0.3066667   0.0000000), wk =   0.0084034
        k(  106) = (   0.3500000   0.3000000   0.0000000), wk =   0.0084034
        k(  107) = (   0.3533333   0.2933333   0.0000000), wk =   0.0084034
        k(  108) = (   0.3566667   0.2866667   0.0000000), wk =   0.0084034
        k(  109) = (   0.3600000   0.2800000   0.0000000), wk =   0.0084034
        k(  110) = (   0.3633333   0.2733333   0.0000000), wk =   0.0084034
        k(  111) = (   0.3666667   0.2666667   0.0000000), wk =   0.0084034
        k(  112) = (   0.3700000   0.2600000   0.0000000), wk =   0.0084034
        k(  113) = (   0.3733333   0.2533333   0.0000000), wk =   0.0084034
        k(  114) = (   0.3766667   0.2466667   0.0000000), wk =   0.0084034
        k(  115) = (   0.3800000   0.2400000   0.0000000), wk =   0.0084034
        k(  116) = (   0.3833333   0.2333333   0.0000000), wk =   0.0084034
        k(  117) = (   0.3866667   0.2266667   0.0000000), wk =   0.0084034
        k(  118) = (   0.3900000   0.2200000   0.0000000), wk =   0.0084034
        k(  119) = (   0.3933333   0.2133333   0.0000000), wk =   0.0084034
        k(  120) = (   0.3966667   0.2066667   0.0000000), wk =   0.0084034
        k(  121) = (   0.4000000   0.2000000   0.0000000), wk =   0.0084034
        k(  122) = (   0.4033333   0.1933333   0.0000000), wk =   0.0084034
        k(  123) = (   0.4066667   0.1866667   0.0000000), wk =   0.0084034
        k(  124) = (   0.4100000   0.1800000   0.0000000), wk =   0.0084034
        k(  125) = (   0.4133333   0.1733333   0.0000000), wk =   0.0084034
        k(  126) = (   0.4166667   0.1666667   0.0000000), wk =   0.0084034
        k(  127) = (   0.4200000   0.1600000   0.0000000), wk =   0.0084034
        k(  128) = (   0.4233333   0.1533333   0.0000000), wk =   0.0084034
        k(  129) = (   0.4266667   0.1466667   0.0000000), wk =   0.0084034
        k(  130) = (   0.4300000   0.1400000   0.0000000), wk =   0.0084034
        k(  131) = (   0.4333333   0.1333333   0.0000000), wk =   0.0084034
        k(  132) = (   0.4366667   0.1266667   0.0000000), wk =   0.0084034
        k(  133) = (   0.4400000   0.1200000   0.0000000), wk =   0.0084034
        k(  134) = (   0.4433333   0.1133333   0.0000000), wk =   0.0084034
        k(  135) = (   0.4466667   0.1066667   0.0000000), wk =   0.0084034
        k(  136) = (   0.4500000   0.1000000   0.0000000), wk =   0.0084034
        k(  137) = (   0.4533333   0.0933333   0.0000000), wk =   0.0084034
        k(  138) = (   0.4566667   0.0866667   0.0000000), wk =   0.0084034
        k(  139) = (   0.4600000   0.0800000   0.0000000), wk =   0.0084034
        k(  140) = (   0.4633333   0.0733333   0.0000000), wk =   0.0084034
        k(  141) = (   0.4666667   0.0666667   0.0000000), wk =   0.0084034
        k(  142) = (   0.4700000   0.0600000   0.0000000), wk =   0.0084034
        k(  143) = (   0.4733333   0.0533333   0.0000000), wk =   0.0084034
        k(  144) = (   0.4766667   0.0466667   0.0000000), wk =   0.0084034
        k(  145) = (   0.4800000   0.0400000   0.0000000), wk =   0.0084034
        k(  146) = (   0.4833333   0.0333333   0.0000000), wk =   0.0084034
        k(  147) = (   0.4866667   0.0266667   0.0000000), wk =   0.0084034
        k(  148) = (   0.4900000   0.0200000   0.0000000), wk =   0.0084034
        k(  149) = (   0.4933333   0.0133333   0.0000000), wk =   0.0084034
        k(  150) = (   0.4966667   0.0066667   0.0000000), wk =   0.0084034
        k(  151) = (   0.5000000   0.0000000   0.0000000), wk =   0.0084034
        k(  152) = (   0.4942529   0.0000000   0.0000000), wk =   0.0084034
        k(  153) = (   0.4885057  -0.0000000   0.0000000), wk =   0.0084034
        k(  154) = (   0.4827586   0.0000000   0.0000000), wk =   0.0084034
        k(  155) = (   0.4770115  -0.0000000   0.0000000), wk =   0.0084034
        k(  156) = (   0.4712644   0.0000000   0.0000000), wk =   0.0084034
        k(  157) = (   0.4655172   0.0000000   0.0000000), wk =   0.0084034
        k(  158) = (   0.4597701  -0.0000000   0.0000000), wk =   0.0084034
        k(  159) = (   0.4540230  -0.0000000   0.0000000), wk =   0.0084034
        k(  160) = (   0.4482759   0.0000000   0.0000000), wk =   0.0084034
        k(  161) = (   0.4425287  -0.0000000   0.0000000), wk =   0.0084034
        k(  162) = (   0.4367816   0.0000000   0.0000000), wk =   0.0084034
        k(  163) = (   0.4310345  -0.0000000   0.0000000), wk =   0.0084034
        k(  164) = (   0.4252874   0.0000000   0.0000000), wk =   0.0084034
        k(  165) = (   0.4195402   0.0000000   0.0000000), wk =   0.0084034
        k(  166) = (   0.4137931   0.0000000   0.0000000), wk =   0.0084034
        k(  167) = (   0.4080460   0.0000000   0.0000000), wk =   0.0084034
        k(  168) = (   0.4022989  -0.0000000   0.0000000), wk =   0.0084034
        k(  169) = (   0.3965517   0.0000000   0.0000000), wk =   0.0084034
        k(  170) = (   0.3908046  -0.0000000   0.0000000), wk =   0.0084034
        k(  171) = (   0.3850575   0.0000000   0.0000000), wk =   0.0084034
        k(  172) = (   0.3793103  -0.0000000   0.0000000), wk =   0.0084034
        k(  173) = (   0.3735632   0.0000000   0.0000000), wk =   0.0084034
        k(  174) = (   0.3678161   0.0000000   0.0000000), wk =   0.0084034
        k(  175) = (   0.3620690  -0.0000000   0.0000000), wk =   0.0084034
        k(  176) = (   0.3563218   0.0000000   0.0000000), wk =   0.0084034
        k(  177) = (   0.3505747  -0.0000000   0.0000000), wk =   0.0084034
        k(  178) = (   0.3448276   0.0000000   0.0000000), wk =   0.0084034
        k(  179) = (   0.3390805  -0.0000000   0.0000000), wk =   0.0084034
        k(  180) = (   0.3333333   0.0000000   0.0000000), wk =   0.0084034
        k(  181) = (   0.3275862   0.0000000   0.0000000), wk =   0.0084034
        k(  182) = (   0.3218391   0.0000000   0.0000000), wk =   0.0084034
        k(  183) = (   0.3160920   0.0000000   0.0000000), wk =   0.0084034
        k(  184) = (   0.3103448  -0.0000000   0.0000000), wk =   0.0084034
        k(  185) = (   0.3045977   0.0000000   0.0000000), wk =   0.0084034
        k(  186) = (   0.2988506   0.0000000   0.0000000), wk =   0.0084034
        k(  187) = (   0.2931034   0.0000000   0.0000000), wk =   0.0084034
        k(  188) = (   0.2873563   0.0000000   0.0000000), wk =   0.0084034
        k(  189) = (   0.2816092   0.0000000   0.0000000), wk =   0.0084034
        k(  190) = (   0.2758621   0.0000000   0.0000000), wk =   0.0084034
        k(  191) = (   0.2701149  -0.0000000   0.0000000), wk =   0.0084034
        k(  192) = (   0.2643678   0.0000000   0.0000000), wk =   0.0084034
        k(  193) = (   0.2586207   0.0000000   0.0000000), wk =   0.0084034
        k(  194) = (   0.2528736   0.0000000   0.0000000), wk =   0.0084034
        k(  195) = (   0.2471264   0.0000000   0.0000000), wk =   0.0084034
        k(  196) = (   0.2413793   0.0000000   0.0000000), wk =   0.0084034
        k(  197) = (   0.2356322   0.0000000   0.0000000), wk =   0.0084034
        k(  198) = (   0.2298851   0.0000000   0.0000000), wk =   0.0084034
        k(  199) = (   0.2241379  -0.0000000   0.0000000), wk =   0.0084034
        k(  200) = (   0.2183908   0.0000000   0.0000000), wk =   0.0084034
        k(  201) = (   0.2126437   0.0000000   0.0000000), wk =   0.0084034
        k(  202) = (   0.2068966   0.0000000   0.0000000), wk =   0.0084034
        k(  203) = (   0.2011494  -0.0000000   0.0000000), wk =   0.0084034
        k(  204) = (   0.1954023  -0.0000000   0.0000000), wk =   0.0084034
        k(  205) = (   0.1896552  -0.0000000   0.0000000), wk =   0.0084034
        k(  206) = (   0.1839080   0.0000000   0.0000000), wk =   0.0084034
        k(  207) = (   0.1781609   0.0000000   0.0000000), wk =   0.0084034
        k(  208) = (   0.1724138   0.0000000   0.0000000), wk =   0.0084034
        k(  209) = (   0.1666667   0.0000000   0.0000000), wk =   0.0084034
        k(  210) = (   0.1609195   0.0000000   0.0000000), wk =   0.0084034
        k(  211) = (   0.1551724  -0.0000000   0.0000000), wk =   0.0084034
        k(  212) = (   0.1494253   0.0000000   0.0000000), wk =   0.0084034
        k(  213) = (   0.1436782   0.0000000   0.0000000), wk =   0.0084034
        k(  214) = (   0.1379310   0.0000000   0.0000000), wk =   0.0084034
        k(  215) = (   0.1321839   0.0000000   0.0000000), wk =   0.0084034
        k(  216) = (   0.1264368   0.0000000   0.0000000), wk =   0.0084034
        k(  217) = (   0.1206897   0.0000000   0.0000000), wk =   0.0084034
        k(  218) = (   0.1149425   0.0000000   0.0000000), wk =   0.0084034
        k(  219) = (   0.1091954   0.0000000   0.0000000), wk =   0.0084034
        k(  220) = (   0.1034483   0.0000000   0.0000000), wk =   0.0084034
        k(  221) = (   0.0977011   0.0000000   0.0000000), wk =   0.0084034
        k(  222) = (   0.0919540   0.0000000   0.0000000), wk =   0.0084034
        k(  223) = (   0.0862069   0.0000000   0.0000000), wk =   0.0084034
        k(  224) = (   0.0804598   0.0000000   0.0000000), wk =   0.0084034
        k(  225) = (   0.0747126   0.0000000   0.0000000), wk =   0.0084034
        k(  226) = (   0.0689655   0.0000000   0.0000000), wk =   0.0084034
        k(  227) = (   0.0632184   0.0000000   0.0000000), wk =   0.0084034
        k(  228) = (   0.0574713  -0.0000000   0.0000000), wk =   0.0084034
        k(  229) = (   0.0517241   0.0000000   0.0000000), wk =   0.0084034
        k(  230) = (   0.0459770  -0.0000000   0.0000000), wk =   0.0084034
        k(  231) = (   0.0402299   0.0000000   0.0000000), wk =   0.0084034
        k(  232) = (   0.0344828   0.0000000   0.0000000), wk =   0.0084034
        k(  233) = (   0.0287356  -0.0000000   0.0000000), wk =   0.0084034
        k(  234) = (   0.0229885  -0.0000000   0.0000000), wk =   0.0084034
        k(  235) = (   0.0172414   0.0000000   0.0000000), wk =   0.0084034
        k(  236) = (   0.0114943  -0.0000000   0.0000000), wk =   0.0084034
        k(  237) = (   0.0057471  -0.0000000   0.0000000), wk =   0.0084034
        k(  238) = (   0.0000000   0.0000000   0.0000000), wk =   0.0084034

     Dense  grid:   124145 G-vectors     FFT dimensions: (  36,  36, 270)

     Smooth grid:    44083 G-vectors     FFT dimensions: (  24,  24, 192)

     Dynamical RAM for                 wfc:       0.06 MB

     Dynamical RAM for     wfc (w. buffer):       0.06 MB

     Dynamical RAM for           str. fact:       0.08 MB

     Dynamical RAM for           local pot:       0.00 MB

     Dynamical RAM for          nlocal pot:       0.06 MB

     Dynamical RAM for                qrad:       0.50 MB

     Dynamical RAM for          rho,v,vnew:       0.59 MB

     Dynamical RAM for           G-vectors:       0.31 MB

     Dynamical RAM for          h,s,v(r/c):       0.00 MB

     Dynamical RAM for          <psi|beta>:       0.00 MB

     Dynamical RAM for                 psi:       0.11 MB

     Dynamical RAM for                hpsi:       0.11 MB

     Dynamical RAM for                spsi:       0.11 MB

     Dynamical RAM for      wfcinit/wfcrot:       0.12 MB

     Dynamical RAM for           addusdens:       3.56 MB

     Estimated static dynamical RAM per process >       2.35 MB

     Estimated max dynamical RAM per process >       5.91 MB

     Estimated total dynamical RAM >     141.82 MB
 ----2D----2D----2D----2D----2D----2D----2D----2D----2D----2D----2D----2D
  The code is running with the 2D cutoff
  Please refer to:
  Sohier, T., Calandra, M., & Mauri, F. (2017), 
  Density functional perturbation theory for gated two-dimensional heterostructu
 res:
  Theoretical developments and application to flexural phonons in graphene.
  Physical Review B, 96(7), 75448. https://doi.org/10.1103/PhysRevB.96.075448
 ----2D----2D----2D----2D----2D----2D----2D----2D----2D----2D----2D----2D

     The potential is recalculated from file :
     ./tmp/graphene.save/charge-density


     negative rho (up, down):  1.076E-04 0.000E+00
     Starting wfcs are    8 randomized atomic wfcs +    8 random wfcs
     Checking if some PAW data can be deallocated... 

     Band Structure Calculation
     Davidson diagonalization with overlap

     Computing kpt #:     1  of   238
     total cpu time spent up to now is        1.9 secs

     Computing kpt #:     2  of   238
     total cpu time spent up to now is        2.1 secs

     Computing kpt #:     3  of   238
     total cpu time spent up to now is        2.4 secs

     Computing kpt #:     4  of   238
     total cpu time spent up to now is        2.6 secs

     Computing kpt #:     5  of   238
     total cpu time spent up to now is        2.8 secs

     Computing kpt #:     6  of   238
     total cpu time spent up to now is        3.0 secs

     Computing kpt #:     7  of   238
     total cpu time spent up to now is        3.2 secs

     Computing kpt #:     8  of   238
     total cpu time spent up to now is        3.4 secs

     Computing kpt #:     9  of   238
     total cpu time spent up to now is        3.6 secs

     Computing kpt #:    10  of   238
     total cpu time spent up to now is        3.8 secs

     Computing kpt #:    11  of   238
     total cpu time spent up to now is        4.0 secs

     Computing kpt #:    12  of   238
     total cpu time spent up to now is        4.2 secs

     Computing kpt #:    13  of   238
     total cpu time spent up to now is        4.4 secs

     Computing kpt #:    14  of   238
     total cpu time spent up to now is        4.6 secs

     Computing kpt #:    15  of   238
     total cpu time spent up to now is        4.8 secs

     Computing kpt #:    16  of   238
     total cpu time spent up to now is        5.0 secs

     Computing kpt #:    17  of   238
     total cpu time spent up to now is        5.2 secs

     Computing kpt #:    18  of   238
     total cpu time spent up to now is        5.4 secs

     Computing kpt #:    19  of   238
     total cpu time spent up to now is        5.6 secs

     Computing kpt #:    20  of   238
     total cpu time spent up to now is        5.8 secs

     Computing kpt #:    21  of   238
     total cpu time spent up to now is        6.0 secs

     Computing kpt #:    22  of   238
     total cpu time spent up to now is        6.2 secs

     Computing kpt #:    23  of   238
     total cpu time spent up to now is        6.4 secs

     Computing kpt #:    24  of   238
     total cpu time spent up to now is        6.7 secs

     Computing kpt #:    25  of   238
     total cpu time spent up to now is        6.9 secs

     Computing kpt #:    26  of   238
     total cpu time spent up to now is        7.1 secs

     Computing kpt #:    27  of   238
     total cpu time spent up to now is        7.3 secs

     Computing kpt #:    28  of   238
     total cpu time spent up to now is        7.5 secs

     Computing kpt #:    29  of   238
     total cpu time spent up to now is        7.7 secs

     Computing kpt #:    30  of   238
     total cpu time spent up to now is        7.9 secs

     Computing kpt #:    31  of   238
     total cpu time spent up to now is        8.1 secs

     Computing kpt #:    32  of   238
     total cpu time spent up to now is        8.3 secs

     Computing kpt #:    33  of   238
     total cpu time spent up to now is        8.5 secs

     Computing kpt #:    34  of   238
     total cpu time spent up to now is        8.7 secs

     Computing kpt #:    35  of   238
     total cpu time spent up to now is        8.9 secs

     Computing kpt #:    36  of   238
     total cpu time spent up to now is        9.1 secs

     Computing kpt #:    37  of   238
     total cpu time spent up to now is        9.3 secs

     Computing kpt #:    38  of   238
     total cpu time spent up to now is        9.6 secs

     Computing kpt #:    39  of   238
     total cpu time spent up to now is        9.8 secs

     Computing kpt #:    40  of   238
     total cpu time spent up to now is       10.0 secs

     Computing kpt #:    41  of   238
     total cpu time spent up to now is       10.2 secs

     Computing kpt #:    42  of   238
     total cpu time spent up to now is       10.4 secs

     Computing kpt #:    43  of   238
     total cpu time spent up to now is       10.6 secs

     Computing kpt #:    44  of   238
     total cpu time spent up to now is       10.8 secs

     Computing kpt #:    45  of   238
     total cpu time spent up to now is       11.0 secs

     Computing kpt #:    46  of   238
     total cpu time spent up to now is       11.2 secs

     Computing kpt #:    47  of   238
     total cpu time spent up to now is       11.5 secs

     Computing kpt #:    48  of   238
     total cpu time spent up to now is       11.7 secs

     Computing kpt #:    49  of   238
     total cpu time spent up to now is       11.9 secs

     Computing kpt #:    50  of   238
     total cpu time spent up to now is       12.1 secs

     Computing kpt #:    51  of   238
     total cpu time spent up to now is       12.3 secs

     Computing kpt #:    52  of   238
     total cpu time spent up to now is       12.5 secs

     Computing kpt #:    53  of   238
     total cpu time spent up to now is       12.8 secs

     Computing kpt #:    54  of   238
     total cpu time spent up to now is       13.0 secs

     Computing kpt #:    55  of   238
     total cpu time spent up to now is       13.3 secs

     Computing kpt #:    56  of   238
     total cpu time spent up to now is       13.5 secs

     Computing kpt #:    57  of   238
     total cpu time spent up to now is       13.8 secs

     Computing kpt #:    58  of   238
     total cpu time spent up to now is       14.0 secs

     Computing kpt #:    59  of   238
     total cpu time spent up to now is       14.3 secs

     Computing kpt #:    60  of   238
     total cpu time spent up to now is       14.6 secs

     Computing kpt #:    61  of   238
     total cpu time spent up to now is       14.8 secs

     Computing kpt #:    62  of   238
     total cpu time spent up to now is       15.1 secs

     Computing kpt #:    63  of   238
     total cpu time spent up to now is       15.3 secs

     Computing kpt #:    64  of   238
     total cpu time spent up to now is       15.6 secs

     Computing kpt #:    65  of   238
     total cpu time spent up to now is       15.9 secs

     Computing kpt #:    66  of   238
     total cpu time spent up to now is       16.1 secs

     Computing kpt #:    67  of   238
     total cpu time spent up to now is       16.4 secs

     Computing kpt #:    68  of   238
     total cpu time spent up to now is       16.7 secs

     Computing kpt #:    69  of   238
     total cpu time spent up to now is       16.9 secs

     Computing kpt #:    70  of   238
     total cpu time spent up to now is       17.2 secs

     Computing kpt #:    71  of   238
     total cpu time spent up to now is       17.5 secs

     Computing kpt #:    72  of   238
     total cpu time spent up to now is       17.8 secs

     Computing kpt #:    73  of   238
     total cpu time spent up to now is       18.0 secs

     Computing kpt #:    74  of   238
     total cpu time spent up to now is       18.3 secs

     Computing kpt #:    75  of   238
     total cpu time spent up to now is       18.6 secs

     Computing kpt #:    76  of   238
     total cpu time spent up to now is       18.9 secs

     Computing kpt #:    77  of   238
     total cpu time spent up to now is       19.3 secs

     Computing kpt #:    78  of   238
     total cpu time spent up to now is       19.6 secs

     Computing kpt #:    79  of   238
     c_bands:  1 eigenvalues not converged
     total cpu time spent up to now is       20.0 secs

     Computing kpt #:    80  of   238
     total cpu time spent up to now is       20.4 secs

     Computing kpt #:    81  of   238
     total cpu time spent up to now is       20.8 secs

     Computing kpt #:    82  of   238
     total cpu time spent up to now is       21.2 secs

     Computing kpt #:    83  of   238
     c_bands:  1 eigenvalues not converged
     total cpu time spent up to now is       21.6 secs

     Computing kpt #:    84  of   238
     total cpu time spent up to now is       21.9 secs

     Computing kpt #:    85  of   238
     total cpu time spent up to now is       22.3 secs

     Computing kpt #:    86  of   238
     c_bands:  1 eigenvalues not converged
     total cpu time spent up to now is       22.7 secs

     Computing kpt #:    87  of   238
     c_bands:  1 eigenvalues not converged
     total cpu time spent up to now is       23.2 secs

     Computing kpt #:    88  of   238
     c_bands:  2 eigenvalues not converged
     total cpu time spent up to now is       23.6 secs

     Computing kpt #:    89  of   238
     c_bands:  2 eigenvalues not converged
     total cpu time spent up to now is       24.0 secs

     Computing kpt #:    90  of   238
     c_bands:  3 eigenvalues not converged
     total cpu time spent up to now is       24.4 secs

     Computing kpt #:    91  of   238
     c_bands:  3 eigenvalues not converged
     total cpu time spent up to now is       24.8 secs

     Computing kpt #:    92  of   238
     c_bands:  1 eigenvalues not converged
     total cpu time spent up to now is       25.3 secs

     Computing kpt #:    93  of   238
     c_bands:  1 eigenvalues not converged
     total cpu time spent up to now is       25.7 secs

     Computing kpt #:    94  of   238
     c_bands:  1 eigenvalues not converged
     total cpu time spent up to now is       26.1 secs

     Computing kpt #:    95  of   238
     c_bands:  1 eigenvalues not converged
     total cpu time spent up to now is       26.6 secs

     Computing kpt #:    96  of   238
     c_bands:  1 eigenvalues not converged
     total cpu time spent up to now is       27.0 secs

     Computing kpt #:    97  of   238
     total cpu time spent up to now is       27.4 secs

     Computing kpt #:    98  of   238
     total cpu time spent up to now is       27.8 secs

     Computing kpt #:    99  of   238
     total cpu time spent up to now is       28.3 secs

     Computing kpt #:   100  of   238
     total cpu time spent up to now is       28.7 secs

     Computing kpt #:   101  of   238
     c_bands:  1 eigenvalues not converged
     total cpu time spent up to now is       29.1 secs

     Computing kpt #:   102  of   238
     c_bands:  1 eigenvalues not converged
     total cpu time spent up to now is       29.5 secs

     Computing kpt #:   103  of   238
     c_bands:  1 eigenvalues not converged
     total cpu time spent up to now is       30.0 secs

     Computing kpt #:   104  of   238
     c_bands:  1 eigenvalues not converged
     total cpu time spent up to now is       30.4 secs

     Computing kpt #:   105  of   238
     c_bands:  3 eigenvalues not converged
     total cpu time spent up to now is       30.9 secs

     Computing kpt #:   106  of   238
     c_bands:  3 eigenvalues not converged
     total cpu time spent up to now is       31.3 secs

     Computing kpt #:   107  of   238
     c_bands:  1 eigenvalues not converged
     total cpu time spent up to now is       31.8 secs

     Computing kpt #:   108  of   238
     total cpu time spent up to now is       32.2 secs

     Computing kpt #:   109  of   238
     c_bands:  1 eigenvalues not converged
     total cpu time spent up to now is       33.6 secs

     Computing kpt #:   110  of   238
     total cpu time spent up to now is       34.1 secs

     Computing kpt #:   111  of   238
     total cpu time spent up to now is       34.5 secs

     Computing kpt #:   112  of   238
     total cpu time spent up to now is       34.8 secs

     Computing kpt #:   113  of   238
     total cpu time spent up to now is       35.3 secs

     Computing kpt #:   114  of   238
     total cpu time spent up to now is       35.7 secs

     Computing kpt #:   115  of   238
     total cpu time spent up to now is       36.1 secs

     Computing kpt #:   116  of   238
     total cpu time spent up to now is       36.5 secs

     Computing kpt #:   117  of   238
     total cpu time spent up to now is       36.9 secs

     Computing kpt #:   118  of   238
     total cpu time spent up to now is       37.3 secs

     Computing kpt #:   119  of   238
     total cpu time spent up to now is       37.7 secs

     Computing kpt #:   120  of   238
     total cpu time spent up to now is       38.1 secs

     Computing kpt #:   121  of   238
     total cpu time spent up to now is       38.5 secs

     Computing kpt #:   122  of   238
     total cpu time spent up to now is       38.9 secs

     Computing kpt #:   123  of   238
     total cpu time spent up to now is       39.3 secs

     Computing kpt #:   124  of   238
     total cpu time spent up to now is       39.7 secs

     Computing kpt #:   125  of   238
     total cpu time spent up to now is       40.1 secs

     Computing kpt #:   126  of   238
     c_bands:  1 eigenvalues not converged
     total cpu time spent up to now is       40.6 secs

     Computing kpt #:   127  of   238
     c_bands:  1 eigenvalues not converged
     total cpu time spent up to now is       41.0 secs

     Computing kpt #:   128  of   238
     c_bands:  1 eigenvalues not converged
     total cpu time spent up to now is       41.4 secs

     Computing kpt #:   129  of   238
     c_bands:  1 eigenvalues not converged
     total cpu time spent up to now is       41.8 secs

     Computing kpt #:   130  of   238
     c_bands:  1 eigenvalues not converged
     total cpu time spent up to now is       42.3 secs

     Computing kpt #:   131  of   238
     total cpu time spent up to now is       42.7 secs

     Computing kpt #:   132  of   238
     c_bands:  1 eigenvalues not converged
     total cpu time spent up to now is       43.1 secs

     Computing kpt #:   133  of   238
     c_bands:  2 eigenvalues not converged
     total cpu time spent up to now is       43.6 secs

     Computing kpt #:   134  of   238
     c_bands:  1 eigenvalues not converged
     total cpu time spent up to now is       44.0 secs

     Computing kpt #:   135  of   238
     c_bands:  2 eigenvalues not converged
     total cpu time spent up to now is       44.4 secs

     Computing kpt #:   136  of   238
     c_bands:  1 eigenvalues not converged
     total cpu time spent up to now is       44.8 secs

     Computing kpt #:   137  of   238
     c_bands:  1 eigenvalues not converged
     total cpu time spent up to now is       45.3 secs

     Computing kpt #:   138  of   238
     c_bands:  2 eigenvalues not converged
     total cpu time spent up to now is       45.7 secs

     Computing kpt #:   139  of   238
     c_bands:  2 eigenvalues not converged
     total cpu time spent up to now is       46.1 secs

     Computing kpt #:   140  of   238
     c_bands:  2 eigenvalues not converged
     total cpu time spent up to now is       46.6 secs

     Computing kpt #:   141  of   238
     c_bands:  2 eigenvalues not converged
     total cpu time spent up to now is       47.0 secs

     Computing kpt #:   142  of   238
     c_bands:  2 eigenvalues not converged
     total cpu time spent up to now is       47.4 secs

     Computing kpt #:   143  of   238
     c_bands:  2 eigenvalues not converged
     total cpu time spent up to now is       47.9 secs

     Computing kpt #:   144  of   238
     c_bands:  2 eigenvalues not converged
     total cpu time spent up to now is       48.3 secs

     Computing kpt #:   145  of   238
     c_bands:  2 eigenvalues not converged
     total cpu time spent up to now is       48.7 secs

     Computing kpt #:   146  of   238
     total cpu time spent up to now is       49.1 secs

     Computing kpt #:   147  of   238
     total cpu time spent up to now is       49.6 secs

     Computing kpt #:   148  of   238
     c_bands:  2 eigenvalues not converged
     total cpu time spent up to now is       50.0 secs

     Computing kpt #:   149  of   238
     c_bands:  1 eigenvalues not converged
     total cpu time spent up to now is       50.4 secs

     Computing kpt #:   150  of   238
     c_bands:  2 eigenvalues not converged
     total cpu time spent up to now is       50.8 secs

     Computing kpt #:   151  of   238
     c_bands:  2 eigenvalues not converged
     total cpu time spent up to now is       51.3 secs

     Computing kpt #:   152  of   238
     c_bands:  1 eigenvalues not converged
     total cpu time spent up to now is       51.7 secs

     Computing kpt #:   153  of   238
     total cpu time spent up to now is       52.1 secs

     Computing kpt #:   154  of   238
     total cpu time spent up to now is       52.4 secs

     Computing kpt #:   155  of   238
     total cpu time spent up to now is       52.8 secs

     Computing kpt #:   156  of   238
     total cpu time spent up to now is       53.2 secs

     Computing kpt #:   157  of   238
     total cpu time spent up to now is       53.5 secs

     Computing kpt #:   158  of   238
     total cpu time spent up to now is       53.8 secs

     Computing kpt #:   159  of   238
     total cpu time spent up to now is       54.2 secs

     Computing kpt #:   160  of   238
     total cpu time spent up to now is       54.5 secs

     Computing kpt #:   161  of   238
     total cpu time spent up to now is       54.8 secs

     Computing kpt #:   162  of   238
     total cpu time spent up to now is       55.3 secs

     Computing kpt #:   163  of   238
     c_bands:  2 eigenvalues not converged
     total cpu time spent up to now is       55.7 secs

     Computing kpt #:   164  of   238
     c_bands:  1 eigenvalues not converged
     total cpu time spent up to now is       56.1 secs

     Computing kpt #:   165  of   238
     c_bands:  1 eigenvalues not converged
     total cpu time spent up to now is       56.5 secs

     Computing kpt #:   166  of   238
     total cpu time spent up to now is       56.8 secs

     Computing kpt #:   167  of   238
     total cpu time spent up to now is       57.2 secs

     Computing kpt #:   168  of   238
     total cpu time spent up to now is       57.5 secs

     Computing kpt #:   169  of   238
     total cpu time spent up to now is       57.7 secs

     Computing kpt #:   170  of   238
     total cpu time spent up to now is       58.0 secs

     Computing kpt #:   171  of   238
     total cpu time spent up to now is       58.3 secs

     Computing kpt #:   172  of   238
     total cpu time spent up to now is       58.6 secs

     Computing kpt #:   173  of   238
     total cpu time spent up to now is       58.9 secs

     Computing kpt #:   174  of   238
     total cpu time spent up to now is       59.2 secs

     Computing kpt #:   175  of   238
     total cpu time spent up to now is       59.5 secs

     Computing kpt #:   176  of   238
     total cpu time spent up to now is       59.8 secs

     Computing kpt #:   177  of   238
     c_bands:  1 eigenvalues not converged
     total cpu time spent up to now is       60.2 secs

     Computing kpt #:   178  of   238
     total cpu time spent up to now is       60.4 secs

     Computing kpt #:   179  of   238
     total cpu time spent up to now is       60.7 secs

     Computing kpt #:   180  of   238
     total cpu time spent up to now is       60.9 secs

     Computing kpt #:   181  of   238
     total cpu time spent up to now is       61.1 secs

     Computing kpt #:   182  of   238
     total cpu time spent up to now is       61.4 secs

     Computing kpt #:   183  of   238
     total cpu time spent up to now is       61.6 secs

     Computing kpt #:   184  of   238
     total cpu time spent up to now is       61.9 secs

     Computing kpt #:   185  of   238
     total cpu time spent up to now is       62.1 secs

     Computing kpt #:   186  of   238
     total cpu time spent up to now is       62.4 secs

     Computing kpt #:   187  of   238
     total cpu time spent up to now is       62.7 secs

     Computing kpt #:   188  of   238
     total cpu time spent up to now is       62.9 secs

     Computing kpt #:   189  of   238
     total cpu time spent up to now is       63.1 secs

     Computing kpt #:   190  of   238
     total cpu time spent up to now is       63.4 secs

     Computing kpt #:   191  of   238
     total cpu time spent up to now is       63.6 secs

     Computing kpt #:   192  of   238
     total cpu time spent up to now is       63.8 secs

     Computing kpt #:   193  of   238
     total cpu time spent up to now is       64.1 secs

     Computing kpt #:   194  of   238
     total cpu time spent up to now is       64.3 secs

     Computing kpt #:   195  of   238
     total cpu time spent up to now is       64.5 secs

     Computing kpt #:   196  of   238
     total cpu time spent up to now is       64.8 secs

     Computing kpt #:   197  of   238
     total cpu time spent up to now is       65.0 secs

     Computing kpt #:   198  of   238
     total cpu time spent up to now is       65.2 secs

     Computing kpt #:   199  of   238
     total cpu time spent up to now is       65.5 secs

     Computing kpt #:   200  of   238
     total cpu time spent up to now is       65.7 secs

     Computing kpt #:   201  of   238
     total cpu time spent up to now is       65.9 secs

     Computing kpt #:   202  of   238
     total cpu time spent up to now is       66.1 secs

     Computing kpt #:   203  of   238
     total cpu time spent up to now is       66.3 secs

     Computing kpt #:   204  of   238
     total cpu time spent up to now is       66.5 secs

     Computing kpt #:   205  of   238
     total cpu time spent up to now is       66.8 secs

     Computing kpt #:   206  of   238
     total cpu time spent up to now is       67.0 secs

     Computing kpt #:   207  of   238
     total cpu time spent up to now is       67.2 secs

     Computing kpt #:   208  of   238
     total cpu time spent up to now is       68.6 secs

     Computing kpt #:   209  of   238
     total cpu time spent up to now is       68.8 secs

     Computing kpt #:   210  of   238
     total cpu time spent up to now is       69.0 secs

     Computing kpt #:   211  of   238
     total cpu time spent up to now is       69.3 secs

     Computing kpt #:   212  of   238
     total cpu time spent up to now is       69.5 secs

     Computing kpt #:   213  of   238
     total cpu time spent up to now is       69.7 secs

     Computing kpt #:   214  of   238
     total cpu time spent up to now is       69.9 secs

     Computing kpt #:   215  of   238
     total cpu time spent up to now is       70.1 secs

     Computing kpt #:   216  of   238
     total cpu time spent up to now is       70.4 secs

     Computing kpt #:   217  of   238
     total cpu time spent up to now is       70.6 secs

     Computing kpt #:   218  of   238
     total cpu time spent up to now is       70.8 secs

     Computing kpt #:   219  of   238
     total cpu time spent up to now is       71.0 secs

     Computing kpt #:   220  of   238
     total cpu time spent up to now is       71.2 secs

     Computing kpt #:   221  of   238
     total cpu time spent up to now is       71.4 secs

     Computing kpt #:   222  of   238
     total cpu time spent up to now is       71.6 secs

     Computing kpt #:   223  of   238
     total cpu time spent up to now is       71.9 secs

     Computing kpt #:   224  of   238
     total cpu time spent up to now is       72.1 secs

     Computing kpt #:   225  of   238
     total cpu time spent up to now is       72.3 secs

     Computing kpt #:   226  of   238
     total cpu time spent up to now is       72.5 secs

     Computing kpt #:   227  of   238
     total cpu time spent up to now is       72.8 secs

     Computing kpt #:   228  of   238
     total cpu time spent up to now is       73.0 secs

     Computing kpt #:   229  of   238
     total cpu time spent up to now is       73.2 secs

     Computing kpt #:   230  of   238
     total cpu time spent up to now is       73.4 secs

     Computing kpt #:   231  of   238
     total cpu time spent up to now is       73.6 secs

     Computing kpt #:   232  of   238
[...]
     7.3887   7.7219   8.2693   9.2127   9.2805   9.9110  10.4121  10.6868

          k = 0.4483 0.2588 0.0000 (  5510 PWs)   bands (ev):

   -19.3674 -16.9414 -10.9004  -7.2815  -2.3625   3.2245   5.2964   6.3008
     7.2175   7.5592   8.4536   9.1126   9.3107   9.8506  10.6176  10.8563

          k = 0.4425 0.2555 0.0000 (  5516 PWs)   bands (ev):

   -19.4763 -16.8106 -10.8854  -7.3613  -2.2593   3.2308   5.1361   6.1391
     7.0483   7.3975   8.6378   8.9470   9.3263   9.8653  10.8249  11.0301

          k = 0.4368 0.2522 0.0000 (  5516 PWs)   bands (ev):

   -19.5851 -16.6777 -10.8689  -7.4456  -2.1492   3.2376   4.9777   5.9790
     6.8813   7.2371   8.7770   8.8285   9.2582   9.9590  11.0338  11.2016

          k = 0.4310 0.2489 0.0000 (  5512 PWs)   bands (ev):

   -19.6934 -16.5429 -10.8509  -7.5338  -2.0328   3.2449   4.8213   5.8205
     6.7163   7.0781   8.6195   9.0082   9.1475  10.0907  11.2426  11.2730

          k = 0.4253 0.2455 0.0000 (  5516 PWs)   bands (ev):

   -19.8011 -16.4065 -10.8313  -7.6252  -1.9109   3.2526   4.6671   5.6637
     6.5536   6.9208   8.4598   9.0198   9.1916  10.2338  11.1147  11.4566

          k = 0.4195 0.2422 0.0000 (  5508 PWs)   bands (ev):

   -19.9080 -16.2686 -10.8101  -7.7194  -1.7839   3.2607   4.5150   5.5087
     6.3930   6.7652   8.3018   8.8848   9.3741  10.3761  10.9603  11.5969

          k = 0.4138 0.2389 0.0000 (  5508 PWs)   bands (ev):

   -20.0141 -16.1294 -10.7875  -7.8158  -1.6524   3.2689   4.3653   5.3554
     6.2345   6.6114   8.1459   8.7467   9.5552  10.5092  10.8076  11.6347

          k = 0.4080 0.2356 0.0000 (  5506 PWs)   bands (ev):

   -20.1191 -15.9890 -10.7633  -7.9139  -1.5168   3.2770   4.2183   5.2040
     6.0783   6.4594   7.9920   8.6073   9.7343  10.6243  10.6569  11.6371

          k = 0.4023 0.2323 0.0000 (  5502 PWs)   bands (ev):

   -20.2232 -15.8474 -10.7376  -8.0135  -1.3776   3.2846   4.0743   5.0544
     5.9242   6.3093   7.8401   8.4677   9.9106  10.5081  10.7105  11.6376

          k = 0.3966 0.2289 0.0000 (  5502 PWs)   bands (ev):

   -20.3261 -15.7048 -10.7104  -8.1142  -1.2351   3.2909   3.9341   4.9067
     5.7722   6.1611   7.6903   8.3286  10.0832  10.3617  10.7567  11.6603

          k = 0.3908 0.2256 0.0000 (  5498 PWs)   bands (ev):

   -20.4279 -15.5611 -10.6818  -8.2157  -1.0897   3.2944   3.7994   4.7610
     5.6225   6.0148   7.5426   8.1903  10.2071  10.2617  10.7587  11.7157

          k = 0.3851 0.2223 0.0000 (  5498 PWs)   bands (ev):

   -20.5285 -15.4165 -10.6516  -8.3177  -0.9417   3.2911   3.6738   4.6172
     5.4749   5.8706   7.3970   8.0530  10.0708  10.4189  10.7225  11.8004

          k = 0.3793 0.2190 0.0000 (  5494 PWs)   bands (ev):

   -20.6278 -15.2710 -10.6201  -8.4199  -0.7914   3.2723   3.5664   4.4754
     5.3296   5.7283   7.2535   7.9170   9.9300  10.5764  10.6590  11.9046

          k = 0.3736 0.2157 0.0000 (  5488 PWs)   bands (ev):

   -20.7260 -15.1247 -10.5870  -8.5223  -0.6389   3.2215   3.4935   4.3356
     5.1864   5.5880   7.1120   7.7824   9.7909  10.5778  10.7270  12.0188

          k = 0.3678 0.2124 0.0000 (  5488 PWs)   bands (ev):

   -20.8228 -14.9776 -10.5526  -8.6245  -0.4846   3.1329   3.4607   4.1978
     5.0455   5.4498   6.9727   7.6493   9.6537  10.4855  10.8692  12.1359

          k = 0.3621 0.2090 0.0000 (  5478 PWs)   bands (ev):

   -20.9184 -14.8298 -10.5167  -8.7265  -0.3287   3.0221   3.4527   4.0621
     4.9068   5.3135   6.8355   7.5178   9.5184  10.3864  11.0016  12.2510

          k = 0.3563 0.2057 0.0000 (  5484 PWs)   bands (ev):

   -21.0126 -14.6813 -10.4795  -8.8281  -0.1714   2.9023   3.4560   3.9284
     4.7703   5.1794   6.7004   7.3880   9.3852  10.2829  11.1228  12.3603

          k = 0.3506 0.2024 0.0000 (  5498 PWs)   bands (ev):

   -21.1056 -14.5322 -10.4408  -8.9291  -0.0128   2.7796   3.4647   3.7969
     4.6361   5.0473   6.5675   7.2599   9.2539  10.1768  11.2315  12.4607

          k = 0.3448 0.1991 0.0000 (  5504 PWs)   bands (ev):

   -21.1971 -14.3824 -10.4009  -9.0295   0.1468   2.6563   3.4761   3.6675
     4.5043   4.9172   6.4367   7.1335   9.1247  10.0691  11.3265  12.3526

          k = 0.3391 0.1958 0.0000 (  5512 PWs)   bands (ev):

   -21.2874 -14.2322 -10.3596  -9.1292   0.3073   2.5337   3.4892   3.5402
     4.3749   4.7893   6.3080   7.0090   8.9976   9.9608  11.4068  12.1591

          k = 0.3333 0.1925 0.0000 (  5508 PWs)   bands (ev):

   -21.3762 -14.0814 -10.3169  -9.2279   0.4684   2.4122   3.4151   3.5031
     4.2480   4.6635   6.1815   6.8863   8.8724   9.8523  11.4717  11.9641

          k = 0.3276 0.1891 0.0000 (  5504 PWs)   bands (ev):

   -21.4637 -13.9302 -10.2730  -9.3258   0.6300   2.2922   3.2923   3.5174
     4.1239   4.5398   6.0572   6.7655   8.7494   9.7440  11.5209  11.7679

          k = 0.3218 0.1858 0.0000 (  5502 PWs)   bands (ev):

   -21.5497 -13.7785 -10.2278  -9.4226   0.7918   2.1738   3.1718   3.5313
     4.0031   4.4182   5.9350   6.6465   8.6284   9.6362  11.5539  11.5707

          k = 0.3161 0.1825 0.0000 (  5506 PWs)   bands (ev):

   -21.6344 -13.6266 -10.1814  -9.5183   0.9537   2.0572   3.0538   3.5433
     3.8868   4.2988   5.8150   6.5295   8.5095   9.5293  11.3726  11.5705

          k = 0.3103 0.1792 0.0000 (  5500 PWs)   bands (ev):

   -21.7176 -13.4743 -10.1338  -9.6129   1.1152   1.9424   2.9383   3.5496
     3.7790   4.1815   5.6972   6.4145   8.3927   9.4233  11.1741  11.5684

          k = 0.3046 0.1759 0.0000 (  5496 PWs)   bands (ev):

   -21.7994 -13.3218 -10.0850  -9.7063   1.2760   1.8296   2.8257   3.5354
     3.6940   4.0665   5.5815   6.3014   8.2780   9.3184  10.9751  11.5385

          k = 0.2989 0.1725 0.0000 (  5498 PWs)   bands (ev):

   -21.8798 -13.1691 -10.0350  -9.7985   1.4355   1.7187   2.7164   3.4742
     3.6586   3.9536   5.4681   6.1903   8.1654   9.2148  10.7760  11.4681

          k = 0.2931 0.1692 0.0000 (  5494 PWs)   bands (ev):

   -21.9588 -13.0163  -9.9839  -9.8893   1.5926   1.6098   2.6115   3.3800
     3.6584   3.8431   5.3569   6.0812   8.0548   9.1126  10.5770  11.3732

          k = 0.2874 0.1659 0.0000 (  5496 PWs)   bands (ev):

   -22.0363 -12.8635  -9.9788  -9.9317   1.5029   1.7448   2.5130   3.2769
     3.6695   3.7349   5.2479   5.9741   7.9464   9.0118  10.3781  11.2720

          k = 0.2816 0.1626 0.0000 (  5488 PWs)   bands (ev):

   -22.1124 -12.7106 -10.0669  -9.8785   1.3980   1.8859   2.4270   3.1723
     3.6291   3.6843   5.1412   5.8690   7.8401   8.9126  10.1797  11.1701

          k = 0.2759 0.1593 0.0000 (  5494 PWs)   bands (ev):

   -22.1870 -12.5579 -10.1535  -9.8243   1.2951   1.9966   2.3726   3.0683
     3.5260   3.7005   5.0367   5.7660   7.7359   8.8149   9.9818  11.0689

          k = 0.2701 0.1560 0.0000 (  5494 PWs)   bands (ev):

   -22.2601 -12.4052 -10.2388  -9.7691   1.1943   2.0322   2.3940   2.9656
     3.4259   3.7174   4.9346   5.6650   7.6338   8.7189   9.7846  10.9693

          k = 0.2644 0.1526 0.0000 (  5502 PWs)   bands (ev):

   -22.3318 -12.2528 -10.3225  -9.7129   1.0956   1.9889   2.4939   2.8648
     3.3296   3.7345   4.8348   5.5661   7.5338   8.6246   9.5883  10.8713

          k = 0.2586 0.1493 0.0000 (  5512 PWs)   bands (ev):

   -22.4020 -12.1007 -10.4047  -9.6559   0.9989   1.9136   2.6237   2.7658
     3.2390   3.7515   4.7374   5.4692   7.4360   8.5320   9.3930  10.7751

          k = 0.2529 0.1460 0.0000 (  5526 PWs)   bands (ev):

   -22.4707 -11.9489 -10.4854  -9.5981   0.9043   1.8288   2.6688   2.7546
     3.1601   3.7681   4.6426   5.3745   7.3402   8.4411   9.1989  10.6809

          k = 0.2471 0.1427 0.0000 (  5526 PWs)   bands (ev):

   -22.5379 -11.7975 -10.5645  -9.5394   0.8118   1.7412   2.5739   2.8542
     3.1184   3.7841   4.5504   5.2819   7.2466   8.3521   9.0061  10.5886

          k = 0.2414 0.1394 0.0000 (  5522 PWs)   bands (ev):

   -22.6037 -11.6467 -10.6420  -9.4800   0.7214   1.6534   2.4811   2.8616
     3.1721   3.7992   4.4611   5.1914   7.1551   8.2649   8.8148  10.4983

          k = 0.2356 0.1360 0.0000 (  5526 PWs)   bands (ev):

   -22.6679 -11.4965 -10.7179  -9.4200   0.6330   1.5664   2.3904   2.8027
     3.2944   3.8130   4.3749   5.1031   7.0658   8.1796   8.6250  10.4101

          k = 0.2299 0.1327 0.0000 (  5524 PWs)   bands (ev):

   -22.7307 -11.3470 -10.7921  -9.3593   0.5468   1.4807   2.3019   2.7267
     3.4351   3.8247   4.2926   5.0169   6.9785   8.0961   8.4370  10.3239

          k = 0.2241 0.1294 0.0000 (  5522 PWs)   bands (ev):

   -22.7919 -11.1983 -10.8647  -9.2980   0.4626   1.3967   2.2155   2.6470
     3.5806   3.8333   4.2152   4.9331   6.8934   8.0145   8.2508  10.2398

          k = 0.2184 0.1261 0.0000 (  5528 PWs)   bands (ev):

   -22.8517 -11.0505 -10.9356  -9.2363   0.3806   1.3144   2.1312   2.5669
     3.7270   3.8365   4.1448   4.8517   6.8105   7.9349   8.0667  10.1577

          k = 0.2126 0.1228 0.0000 (  5518 PWs)   bands (ev):

   -22.9099 -11.0048 -10.9037  -9.1741   0.3007   1.2340   2.0491   2.4878
     3.8305   3.8726   4.0852   4.7728   6.7296   7.8572   7.8847  10.0777

          k = 0.2069 0.1195 0.0000 (  5518 PWs)   bands (ev):

   -22.9666 -11.0724 -10.7580  -9.1116   0.2229   1.1556   1.9692   2.4102
     3.8099   4.0163   4.0416   4.6971   6.6509   7.7049   7.7814   9.9998

          k = 0.2011 0.1161 0.0000 (  5516 PWs)   bands (ev):

   -23.0218 -11.1382 -10.6135  -9.0487   0.1472   1.0792   1.8915   2.3343
     3.7720   4.0168   4.1562   4.6257   6.5743   7.5276   7.7077   9.9240

          k = 0.1954 0.1128 0.0000 (  5516 PWs)   bands (ev):

   -23.0755 -11.2022 -10.4704  -8.9857   0.0736   1.0048   1.8159   2.2602
     3.7207   4.0068   4.2870   4.5639   6.4999   7.3527   7.6359   9.8502

          k = 0.1897 0.1095 0.0000 (  5524 PWs)   bands (ev):

   -23.1277 -11.2646 -10.3287  -8.9225   0.0021   0.9325   1.7425   2.1882
     3.6620   4.0054   4.3775   4.5426   6.4275   7.1805   7.5661   9.7786

          k = 0.1839 0.1062 0.0000 (  5528 PWs)   bands (ev):

   -23.1783 -11.3252 -10.1887  -8.8593  -0.0673   0.8623   1.6713   2.1181
     3.6002   4.0084   4.3653   4.6239   6.3573   7.0112   7.4982   9.7091

          k = 0.1782 0.1029 0.0000 (  5524 PWs)   bands (ev):

   -23.2274 -11.3840 -10.0503  -8.7962  -0.1345   0.7942   1.6023   2.0501
     3.5377   4.0134   4.3111   4.7470   6.2892   6.8447   7.4325   9.6417

          k = 0.1724 0.0995 0.0000 (  5522 PWs)   bands (ev):

   -23.2749 -11.4410  -9.9138  -8.7332  -0.1996   0.7282   1.5355   1.9842
     3.4756   4.0191   4.2507   4.8760   6.2233   6.6813   7.3687   9.5763

          k = 0.1667 0.0962 0.0000 (  5522 PWs)   bands (ev):

   -23.3210 -11.4962  -9.7793  -8.6704  -0.2626   0.6643   1.4708   1.9204
     3.4146   4.0248   4.1899   5.0049   6.1594   6.5211   7.3069   9.5131

          k = 0.1609 0.0929 0.0000 (  5528 PWs)   bands (ev):

   -23.3655 -11.5496  -9.6470  -8.6080  -0.3234   0.6025   1.4083   1.8587
     3.3550   4.0301   4.1302   5.1320   6.0977   6.3643   7.2472   9.4520

          k = 0.1552 0.0896 0.0000 (  5526 PWs)   bands (ev):

   -23.4084 -11.6013  -9.5169  -8.5460  -0.3821   0.5429   1.3481   1.7991
     3.2971   4.0348   4.0721   5.2568   6.0381   6.2109   7.1896   9.3930

          k = 0.1494 0.0863 0.0000 (  5522 PWs)   bands (ev):

   -23.4498 -11.6511  -9.3893  -8.4846  -0.4387   0.4855   1.2900   1.7417
     3.2411   4.0158   4.0387   5.3788   5.9806   6.0612   7.1340   9.3361

          k = 0.1437 0.0830 0.0000 (  5518 PWs)   bands (ev):

   -23.4897 -11.6991  -9.2643  -8.4239  -0.4932   0.4301   1.2341   1.6864
     3.1869   3.9614   4.0417   5.4978   5.9153   5.9252   7.0804   9.2814

          k = 0.1379 0.0796 0.0000 (  5520 PWs)   bands (ev):

   -23.5280 -11.7452  -9.1421  -8.3639  -0.5455   0.3769   1.1804   1.6332
     3.1347   3.9091   4.0438   5.6137   5.7733   5.8720   7.0289   9.2287

          k = 0.1322 0.0763 0.0000 (  5516 PWs)   bands (ev):

   -23.5648 -11.7896  -9.0229  -8.3049  -0.5957   0.3259   1.1289   1.5822
     3.0845   3.8588   4.0448   5.6354   5.7261   5.8209   6.9795   9.1782

          k = 0.1264 0.0730 0.0000 (  5514 PWs)   bands (ev):

   -23.6000 -11.8320  -8.9067  -8.2470  -0.6438   0.2771   1.0796   1.5334
     3.0364   3.8107   4.0448   5.5017   5.7719   5.8350   6.9322   9.1297

          k = 0.1207 0.0697 0.0000 (  5506 PWs)   bands (ev):

   -23.6336 -11.8727  -8.7940  -8.1902  -0.6897   0.2303   1.0324   1.4867
     2.9903   3.7646   4.0438   5.3724   5.7250   5.9403   6.8869   9.0834

          k = 0.1149 0.0664 0.0000 (  5500 PWs)   bands (ev):

   -23.6658 -11.9114  -8.6847  -8.1347  -0.7335   0.1858   0.9875   1.4421
     2.9463   3.7206   4.0419   5.2476   5.6802   6.0417   6.8437   9.0392

          k = 0.1092 0.0630 0.0000 (  5500 PWs)   bands (ev):

   -23.6963 -11.9483  -8.5791  -8.0808  -0.7751   0.1434   0.9447   1.3998
     2.9045   3.6787   4.0390   5.1276   5.6376   6.1392   6.8026   8.9971

          k = 0.1034 0.0597 0.0000 (  5498 PWs)   bands (ev):

   -23.7253 -11.9834  -8.4774  -8.0284  -0.8147   0.1032   0.9042   1.3596
     2.8647   3.6389   4.0352   5.0124   5.5971   6.2326   6.7637   8.9571

          k = 0.0977 0.0564 0.0000 (  5492 PWs)   bands (ev):

   -23.7527 -12.0165  -8.3797  -7.9777  -0.8521   0.0652   0.8658   1.3215
     2.8271   3.6013   4.0306   4.9023   5.5587   6.3218   6.7268   8.9193

          k = 0.0920 0.0531 0.0000 (  5498 PWs)   bands (ev):

   -23.7786 -12.0479  -8.2863  -7.9290  -0.8873   0.0293   0.8297   1.2857
     2.7917   3.5658   4.0253   4.7974   5.5225   6.4066   6.6920   8.8836

          k = 0.0862 0.0498 0.0000 (  5492 PWs)   bands (ev):

   -23.8029 -12.0773  -8.1974  -7.8822  -0.9204  -0.0044   0.7957   1.2520
     2.7583   3.5325   4.0194   4.6978   5.4884   6.4868   6.6594   8.8500

          k = 0.0805 0.0465 0.0000 (  5494 PWs)   bands (ev):

   -23.8257 -12.1048  -8.1131  -7.8377  -0.9514  -0.0360   0.7639   1.2204
     2.7271   3.5013   4.0130   4.6038   5.4565   6.5621   6.6294   8.8185

          k = 0.0747 0.0431 0.0000 (  5490 PWs)   bands (ev):

   -23.8469 -12.1305  -8.0336  -7.7954  -0.9802  -0.0654   0.7343   1.1911
     2.6981   3.4722   4.0063   4.5154   5.4267   6.5980   6.6362   8.7892

          k = 0.0690 0.0398 0.0000 (  5488 PWs)   bands (ev):

   -23.8665 -12.1543  -7.9592  -7.7556  -1.0069  -0.0926   0.7069   1.1639
     2.6712   3.4453   3.9993   4.4328   5.3991   6.5729   6.7012   8.7621

          k = 0.0632 0.0365 0.0000 (  5484 PWs)   bands (ev):

   -23.8845 -12.1761  -7.8899  -7.7184  -1.0315  -0.1176   0.6817   1.1389
     2.6464   3.4205   3.9922   4.3562   5.3737   6.5488   6.7625   8.7371

          k = 0.0575 0.0332 0.0000 (  5483 PWs)   bands (ev):

   -23.9010 -12.1961  -7.8261  -7.6840  -1.0539  -0.1404   0.6587   1.1160
     2.6238   3.3979   3.9851   4.2858   5.3504   6.5267   6.8189   8.7142

          k = 0.0517 0.0299 0.0000 (  5489 PWs)   bands (ev):

   -23.9159 -12.2142  -7.7677  -7.6524  -1.0742  -0.1611   0.6379   1.0954
     2.6034   3.3775   3.9782   4.2215   5.3294   6.5067   6.8703   8.6935

          k = 0.0460 0.0265 0.0000 (  5493 PWs)   bands (ev):

   -23.9293 -12.2304  -7.7151  -7.6237  -1.0923  -0.1796   0.6193   1.0769
     2.5851   3.3591   3.9715   4.1637   5.3105   6.4887   6.9165   8.6750

          k = 0.0402 0.0232 0.0000 (  5493 PWs)   bands (ev):

   -23.9411 -12.2447  -7.6682  -7.5982  -1.1083  -0.1959   0.6028   1.0605
     2.5689   3.3430   3.9653   4.1124   5.2939   6.4729   6.9575   8.6586

          k = 0.0345 0.0199 0.0000 (  5493 PWs)   bands (ev):

   -23.9513 -12.2571  -7.6274  -7.5758  -1.1222  -0.2101   0.5886   1.0464
     2.5549   3.3290   3.9597   4.0677   5.2795   6.4591   6.9931   8.6445

          k = 0.0287 0.0166 0.0000 (  5489 PWs)   bands (ev):

   -23.9599 -12.2676  -7.5926  -7.5568  -1.1339  -0.2221   0.5765   1.0344
     2.5431   3.3171   3.9547   4.0297   5.2672   6.4475   7.0234   8.6325

          k = 0.0230 0.0133 0.0000 (  5491 PWs)   bands (ev):

   -23.9670 -12.2761  -7.5640  -7.5410  -1.1436  -0.2319   0.5667   1.0246
     2.5334   3.3074   3.9505   3.9985   5.2572   6.4380   7.0483   8.6226

          k = 0.0172 0.0100 0.0000 (  5495 PWs)   bands (ev):

   -23.9725 -12.2828  -7.5417  -7.5287  -1.1510  -0.2395   0.5590   1.0170
     2.5259   3.2999   3.9471   3.9741   5.2494   6.4306   7.0677   8.6150

          k = 0.0115 0.0066 0.0000 (  5495 PWs)   bands (ev):

   -23.9764 -12.2876  -7.5257  -7.5199  -1.1564  -0.2449   0.5535   1.0116
     2.5205   3.2945   3.9447   3.9567   5.2439   6.4253   7.0816   8.6095

          k = 0.0057 0.0033 0.0000 (  5487 PWs)   bands (ev):

   -23.9788 -12.2904  -7.5160  -7.5146  -1.1596  -0.2482   0.5502   1.0083
     2.5173   3.2912   3.9432   3.9462   5.2405   6.4221   7.0899   8.6063

          k = 0.0000 0.0000 0.0000 (  5493 PWs)   bands (ev):

   -23.9796 -12.2914  -7.5128  -7.5128  -1.1606  -0.2493   0.5491   1.0072
     2.5162   3.2902   3.9427   3.9427   5.2394   6.4210   7.0927   8.6052

     Writing output data file ./tmp/graphene.save/
 
     init_run     :      0.16s CPU      0.35s WALL (       1 calls)
     electrons    :     60.66s CPU     73.47s WALL (       1 calls)

     Called by init_run:
     wfcinit      :      0.00s CPU      0.01s WALL (       1 calls)
     wfcinit:atom :      0.01s CPU      0.01s WALL (     238 calls)
     wfcinit:wfcr :      0.82s CPU      0.95s WALL (     238 calls)
     potinit      :      0.01s CPU      0.03s WALL (       1 calls)
     hinit0       :      0.08s CPU      0.21s WALL (       1 calls)

     Called by electrons:
     c_bands      :     60.66s CPU     73.45s WALL (       1 calls)
     v_of_rho     :      0.00s CPU      0.00s WALL (       1 calls)
     v_h          :      0.00s CPU      0.00s WALL (       1 calls)
     v_xc         :      0.00s CPU      0.00s WALL (       1 calls)
     newd         :      0.01s CPU      0.01s WALL (       1 calls)
     PAW_pot      :      0.00s CPU      0.00s WALL (       1 calls)

     Called by c_bands:
     init_us_2    :      0.02s CPU      0.01s WALL (     238 calls)
     cegterg      :     58.60s CPU     70.30s WALL (    1069 calls)

     Called by sum_band:

     Called by *egterg:
     cdiaghg      :     20.95s CPU     30.03s WALL (   20133 calls)
     cegterg:over :      6.15s CPU      6.06s WALL (   19895 calls)
     cegterg:upda :      2.16s CPU      2.42s WALL (   19895 calls)
     cegterg:last :      3.83s CPU      3.87s WALL (   11328 calls)
     cdiaghg:chol :      0.96s CPU      1.82s WALL (   20133 calls)
     cdiaghg:inve :      0.32s CPU      0.41s WALL (   20133 calls)
     cdiaghg:para :      2.68s CPU      2.67s WALL (   40266 calls)
     h_psi        :     25.15s CPU     27.31s WALL (   21202 calls)
     s_psi        :      0.28s CPU      0.32s WALL (   21202 calls)
     g_psi        :      0.19s CPU      0.31s WALL (   19895 calls)

     Called by h_psi:
     h_psi:calbec :      0.87s CPU      0.93s WALL (   21202 calls)
     vloc_psi     :     23.85s CPU     25.86s WALL (   21202 calls)
     add_vuspsi   :      0.31s CPU      0.35s WALL (   21202 calls)

     General routines
     calbec       :      0.85s CPU      0.90s WALL (   21202 calls)
     fft          :      0.00s CPU      0.12s WALL (       6 calls)
     ffts         :      0.00s CPU      0.00s WALL (       1 calls)
     fftw         :     22.58s CPU     24.22s WALL (  344628 calls)
     interpolate  :      0.00s CPU      0.00s WALL (       1 calls)
     davcio       :      0.02s CPU      1.37s WALL (     476 calls)
 
     Parallel routines

     PAW routines
     PAW_pot      :      0.00s CPU      0.00s WALL (       1 calls)
 
     PWSCF        :   1m 1.94s CPU   1m24.66s WALL

 
   This run was terminated on:  21:59: 6   8Nov2021            

=------------------------------------------------------------------------------=
   JOB DONE.
=------------------------------------------------------------------------------=
