
     Program PWSCF v.6.8 starts on  8Nov2021 at 22:29:33 

     This program is part of the open-source Quantum ESPRESSO suite
     for quantum simulation of materials; please cite
         "P. Giannozzi et al., J. Phys.:Condens. Matter 21 395502 (2009);
         "P. Giannozzi et al., J. Phys.:Condens. Matter 29 465901 (2017);
         "P. Giannozzi et al., J. Chem. Phys. 152 154105 (2020);
          URL http://www.quantum-espresso.org", 
     in publications or presentations arising from this work. More details at
     http://www.quantum-espresso.org/quote

     Parallel version (MPI), running on    24 processors

     MPI processes distributed on     1 nodes
     R & G space division:  proc/nbgrp/npool/nimage =      24
     53573 MiB available memory on the printing compute node when the environment starts
 
     Reading input from nscf.pwi
Warning: card &IONS ignored
Warning: card / ignored
Warning: card &CELL ignored
Warning: card / ignored

     Current dimensions of program PWSCF are:
     Max number of different atomic species (ntypx) = 10
     Max number of k-points (npk) =  40000
     Max angular momentum in pseudopotentials (lmaxx) =  4

     Atomic positions and unit cell read from directory:
     ./tmp/graphene.save/
     Atomic positions from file used, from input discarded
 
     file C.pz-n-kjpaw_psl.1.0.0.UPF: wavefunction(s)  2S 2P renormalized

     Subspace diagonalization in iterative solution of the eigenvalue problem:
     one sub-group per band group will be used
     scalapack distributed-memory algorithm (size of sub-group:  4*  4 procs)

 
     Parallelization info
     --------------------
     sticks:   dense  smooth     PW     G-vecs:    dense   smooth      PW
     Min          29      14      6                 5159     1821     522
     Max          30      16      7                 5187     1851     559
     Sum         703     361    151               124145    44083   12801
 
     Using Slab Decomposition
 


     bravais-lattice index     =            4
     lattice parameter (alat)  =       4.6247  a.u.
     unit-cell volume          =     700.0316 (a.u.)^3
     number of atoms/cell      =            2
     number of atomic types    =            1
     number of electrons       =         8.00
     number of Kohn-Sham states=           16
     kinetic-energy cutoff     =      60.0000  Ry
     charge density cutoff     =     480.0000  Ry
     Exchange-correlation= SLA  PZ   NOGX NOGC
                           (   1   1   0   0   0   0   0)

     celldm(1)=   4.624652  celldm(2)=   0.000000  celldm(3)=   8.172403
     celldm(4)=   0.000000  celldm(5)=   0.000000  celldm(6)=   0.000000

     crystal axes: (cart. coord. in units of alat)
               a(1) = (   1.000000   0.000000   0.000000 )  
               a(2) = (  -0.500000   0.866025   0.000000 )  
               a(3) = (   0.000000   0.000000   8.172403 )  

     reciprocal axes: (cart. coord. in units 2 pi/alat)
               b(1) = (  1.000000  0.577350  0.000000 )  
               b(2) = (  0.000000  1.154701  0.000000 )  
               b(3) = (  0.000000  0.000000  0.122363 )  


     PseudoPot. # 1 for C  read from file:
     /opt/LDA/C.pz-n-kjpaw_psl.1.0.0.UPF
     MD5 check sum: 15019a788ed847dd19cec0d3328e849a
     Pseudo is Projector augmented-wave + core cor, Zval =  4.0
     Generated using 'atomic' code by A. Dal Corso  v.6.8
     Shape of augmentation charge: PSQ
     Using radial grid of 1073 points,  4 beta functions with: 
                l(1) =   0
                l(2) =   0
                l(3) =   1
                l(4) =   1
     Q(r) pseudized with 0 coefficients 


     atomic species   valence    mass     pseudopotential
        C              4.00    12.01100     C ( 1.00)

     No symmetry found



   Cartesian axes

     site n.     atom                  positions (alat units)
         1           C   tau(   1) = (   0.0000000   0.0000000   4.0862017  )
         2           C   tau(   2) = (   0.5000000   0.2886751   4.0862017  )

     number of k points=   225  Gaussian smearing, width (Ry)=  0.1000

     Number of k-points >= 100: set verbosity='high' to print them.

     Dense  grid:   124145 G-vectors     FFT dimensions: (  36,  36, 270)

     Smooth grid:    44083 G-vectors     FFT dimensions: (  24,  24, 192)

     Estimated max dynamical RAM per process >       5.91 MB

     Estimated total dynamical RAM >     141.82 MB
 ----2D----2D----2D----2D----2D----2D----2D----2D----2D----2D----2D----2D
  The code is running with the 2D cutoff
  Please refer to:
  Sohier, T., Calandra, M., & Mauri, F. (2017), 
  Density functional perturbation theory for gated two-dimensional heterostructu
 res:
  Theoretical developments and application to flexural phonons in graphene.
  Physical Review B, 96(7), 75448. https://doi.org/10.1103/PhysRevB.96.075448
 ----2D----2D----2D----2D----2D----2D----2D----2D----2D----2D----2D----2D

     The potential is recalculated from file :
     ./tmp/graphene.save/charge-density


     negative rho (up, down):  1.076E-04 0.000E+00
     Starting wfcs are    8 randomized atomic wfcs +    8 random wfcs
     Checking if some PAW data can be deallocated... 

     Band Structure Calculation
     Davidson diagonalization with overlap
     c_bands:  1 eigenvalues not converged
     c_bands:  2 eigenvalues not converged
     c_bands:  2 eigenvalues not converged
     c_bands:  1 eigenvalues not converged
     c_bands:  1 eigenvalues not converged
     c_bands:  1 eigenvalues not converged
     c_bands:  1 eigenvalues not converged
     c_bands:  1 eigenvalues not converged
     c_bands:  1 eigenvalues not converged
     c_bands:  1 eigenvalues not converged
     c_bands:  1 eigenvalues not converged
     c_bands:  2 eigenvalues not converged
     c_bands:  1 eigenvalues not converged
     c_bands:  2 eigenvalues not converged
     c_bands:  1 eigenvalues not converged
     c_bands:  2 eigenvalues not converged
     c_bands:  2 eigenvalues not converged
     c_bands:  2 eigenvalues not converged
     c_bands:  2 eigenvalues not converged
     c_bands:  1 eigenvalues not converged
     c_bands:  1 eigenvalues not converged
     c_bands:  1 eigenvalues not converged
     c_bands:  1 eigenvalues not converged
     c_bands:  1 eigenvalues not converged
     c_bands:  1 eigenvalues not converged
     c_bands:  1 eigenvalues not converged
     c_bands:  1 eigenvalues not converged
     c_bands:  1 eigenvalues not converged
     c_bands:  2 eigenvalues not converged
     c_bands:  2 eigenvalues not converged
     c_bands:  2 eigenvalues not converged

     ethr =  1.00E-13,  avg # of iterations = 82.1

     total cpu time spent up to now is       72.2 secs

     End of band structure calculation

     Number of k-points >= 100: set verbosity='high' to print the bands.

     the Fermi energy is    -4.5786 ev
     (compare with:    -4.5786 eV, computed in scf)

     Writing output data file ./tmp/graphene.save/
 
     init_run     :      0.14s CPU      0.23s WALL (       1 calls)
     electrons    :     59.12s CPU     71.73s WALL (       1 calls)

     Called by init_run:
     wfcinit      :      0.00s CPU      0.01s WALL (       1 calls)
     potinit      :      0.01s CPU      0.03s WALL (       1 calls)
     hinit0       :      0.10s CPU      0.15s WALL (       1 calls)

     Called by electrons:
     c_bands      :     59.09s CPU     71.70s WALL (       1 calls)
     v_of_rho     :      0.00s CPU      0.00s WALL (       1 calls)
     newd         :      0.01s CPU      0.01s WALL (       1 calls)
     PAW_pot      :      0.00s CPU      0.00s WALL (       1 calls)

     Called by c_bands:
     init_us_2    :      0.01s CPU      0.01s WALL (     225 calls)
     cegterg      :     56.87s CPU     68.46s WALL (    1005 calls)

     Called by *egterg:
     cdiaghg      :     19.33s CPU     28.38s WALL (   18707 calls)
     h_psi        :     25.38s CPU     27.43s WALL (   19712 calls)
     s_psi        :      0.22s CPU      0.25s WALL (   19712 calls)
     g_psi        :      0.12s CPU      0.23s WALL (   18482 calls)

     Called by h_psi:
     h_psi:calbec :      0.80s CPU      0.83s WALL (   19712 calls)
     vloc_psi     :     24.24s CPU     26.18s WALL (   19712 calls)
     add_vuspsi   :      0.22s CPU      0.28s WALL (   19712 calls)

     General routines
     calbec       :      0.77s CPU      0.80s WALL (   19712 calls)
     fft          :      0.04s CPU      0.09s WALL (       6 calls)
     ffts         :      0.00s CPU      0.00s WALL (       1 calls)
     fftw         :     23.08s CPU     24.65s WALL (  327390 calls)
     interpolate  :      0.00s CPU      0.00s WALL (       1 calls)
     davcio       :      0.02s CPU      0.78s WALL (     450 calls)
 
     Parallel routines
 
     PWSCF        :     59.93s CPU   1m17.37s WALL

 
   This run was terminated on:  22:30:50   8Nov2021            

=------------------------------------------------------------------------------=
   JOB DONE.
=------------------------------------------------------------------------------=
