
     Program PWSCF v.6.8 starts on  8Nov2021 at 22:29:26 

     This program is part of the open-source Quantum ESPRESSO suite
     for quantum simulation of materials; please cite
         "P. Giannozzi et al., J. Phys.:Condens. Matter 21 395502 (2009);
         "P. Giannozzi et al., J. Phys.:Condens. Matter 29 465901 (2017);
         "P. Giannozzi et al., J. Chem. Phys. 152 154105 (2020);
          URL http://www.quantum-espresso.org", 
     in publications or presentations arising from this work. More details at
     http://www.quantum-espresso.org/quote

     Parallel version (MPI), running on    24 processors

     MPI processes distributed on     1 nodes
     R & G space division:  proc/nbgrp/npool/nimage =      24
     53583 MiB available memory on the printing compute node when the environment starts
 
     Reading input from scf.pwi
Warning: card &CELL ignored
Warning: card / ignored

     Current dimensions of program PWSCF are:
     Max number of different atomic species (ntypx) = 10
     Max number of k-points (npk) =  40000
     Max angular momentum in pseudopotentials (lmaxx) =  4
     file C.pz-n-kjpaw_psl.1.0.0.UPF: wavefunction(s)  2S 2P renormalized

     Subspace diagonalization in iterative solution of the eigenvalue problem:
     one sub-group per band group will be used
     scalapack distributed-memory algorithm (size of sub-group:  4*  4 procs)

 
     Parallelization info
     --------------------
     sticks:   dense  smooth     PW     G-vecs:    dense   smooth      PW
     Min          29      15      4                 5159     1821     304
     Max          30      16      5                 5187     1849     333
     Sum         703     361    109               124145    44083    7629
 
     Using Slab Decomposition
 


     bravais-lattice index     =            4
     lattice parameter (alat)  =       4.6247  a.u.
     unit-cell volume          =     700.0316 (a.u.)^3
     number of atoms/cell      =            2
     number of atomic types    =            1
     number of electrons       =         8.00
     number of Kohn-Sham states=            8
     kinetic-energy cutoff     =      60.0000  Ry
     charge density cutoff     =     480.0000  Ry
     scf convergence threshold =      1.0E-12
     mixing beta               =       0.7000
     number of iterations used =            8  plain     mixing
     Exchange-correlation= SLA  PZ   NOGX NOGC
                           (   1   1   0   0   0   0   0)

     celldm(1)=   4.624652  celldm(2)=   0.000000  celldm(3)=   8.172403
     celldm(4)=   0.000000  celldm(5)=   0.000000  celldm(6)=   0.000000

     crystal axes: (cart. coord. in units of alat)
               a(1) = (   1.000000   0.000000   0.000000 )  
               a(2) = (  -0.500000   0.866025   0.000000 )  
               a(3) = (   0.000000   0.000000   8.172403 )  

     reciprocal axes: (cart. coord. in units 2 pi/alat)
               b(1) = (  1.000000  0.577350  0.000000 )  
               b(2) = (  0.000000  1.154701  0.000000 )  
               b(3) = (  0.000000  0.000000  0.122363 )  


     PseudoPot. # 1 for C  read from file:
     /opt/LDA/C.pz-n-kjpaw_psl.1.0.0.UPF
     MD5 check sum: 15019a788ed847dd19cec0d3328e849a
     Pseudo is Projector augmented-wave + core cor, Zval =  4.0
     Generated using 'atomic' code by A. Dal Corso  v.6.8
     Shape of augmentation charge: PSQ
     Using radial grid of 1073 points,  4 beta functions with: 
                l(1) =   0
                l(2) =   0
                l(3) =   1
                l(4) =   1
     Q(r) pseudized with 0 coefficients 


     atomic species   valence    mass     pseudopotential
        C              4.00    12.01100     C ( 1.00)

     24 Sym. Ops., with inversion, found (12 have fractional translation)



   Cartesian axes

     site n.     atom                  positions (alat units)
         1           C   tau(   1) = (   0.0000000   0.0000000   4.0862017  )
         2           C   tau(   2) = (   0.5000000   0.2886751   4.0862017  )

     number of k points=    27  Gaussian smearing, width (Ry)=  0.1000
                       cart. coord. in units 2pi/alat
        k(    1) = (   0.0000000   0.0000000   0.0000000), wk =   0.0088889
        k(    2) = (   0.0000000   0.0769800   0.0000000), wk =   0.0533333
        k(    3) = (   0.0000000   0.1539601   0.0000000), wk =   0.0533333
        k(    4) = (   0.0000000   0.2309401   0.0000000), wk =   0.0533333
        k(    5) = (   0.0000000   0.3079201   0.0000000), wk =   0.0533333
        k(    6) = (   0.0000000   0.3849002   0.0000000), wk =   0.0533333
        k(    7) = (   0.0000000   0.4618802   0.0000000), wk =   0.0533333
        k(    8) = (   0.0000000   0.5388603   0.0000000), wk =   0.0533333
        k(    9) = (   0.0666667   0.1154701   0.0000000), wk =   0.0533333
        k(   10) = (   0.0666667   0.1924501   0.0000000), wk =   0.1066667
        k(   11) = (   0.0666667   0.2694301   0.0000000), wk =   0.1066667
        k(   12) = (   0.0666667   0.3464102   0.0000000), wk =   0.1066667
        k(   13) = (   0.0666667   0.4233902   0.0000000), wk =   0.1066667
        k(   14) = (   0.0666667   0.5003702   0.0000000), wk =   0.1066667
        k(   15) = (   0.0666667   0.5773503   0.0000000), wk =   0.0533333
        k(   16) = (   0.1333333   0.2309401   0.0000000), wk =   0.0533333
        k(   17) = (   0.1333333   0.3079201   0.0000000), wk =   0.1066667
        k(   18) = (   0.1333333   0.3849002   0.0000000), wk =   0.1066667
        k(   19) = (   0.1333333   0.4618802   0.0000000), wk =   0.1066667
        k(   20) = (   0.1333333   0.5388603   0.0000000), wk =   0.1066667
        k(   21) = (   0.2000000   0.3464102   0.0000000), wk =   0.0533333
        k(   22) = (   0.2000000   0.4233902   0.0000000), wk =   0.1066667
        k(   23) = (   0.2000000   0.5003702   0.0000000), wk =   0.1066667
        k(   24) = (   0.2000000   0.5773503   0.0000000), wk =   0.0533333
        k(   25) = (   0.2666667   0.4618802   0.0000000), wk =   0.0533333
        k(   26) = (   0.2666667   0.5388603   0.0000000), wk =   0.1066667
        k(   27) = (   0.3333333   0.5773503   0.0000000), wk =   0.0177778

     Dense  grid:   124145 G-vectors     FFT dimensions: (  36,  36, 270)

     Smooth grid:    44083 G-vectors     FFT dimensions: (  24,  24, 192)

     Estimated max dynamical RAM per process >       8.10 MB

     Estimated total dynamical RAM >     194.32 MB
 ----2D----2D----2D----2D----2D----2D----2D----2D----2D----2D----2D----2D
  The code is running with the 2D cutoff
  Please refer to:
  Sohier, T., Calandra, M., & Mauri, F. (2017), 
  Density functional perturbation theory for gated two-dimensional heterostructu
 res:
  Theoretical developments and application to flexural phonons in graphene.
  Physical Review B, 96(7), 75448. https://doi.org/10.1103/PhysRevB.96.075448
 ----2D----2D----2D----2D----2D----2D----2D----2D----2D----2D----2D----2D

     Initial potential from superposition of free atoms

     starting charge    7.99993, renormalised to    8.00000

     negative rho (up, down):  6.459E-05 0.000E+00
     Starting wfcs are    8 randomized atomic wfcs
     Checking if some PAW data can be deallocated... 

     total cpu time spent up to now is        0.9 secs

     Self-consistent Calculation

     iteration #  1     ecut=    60.00 Ry     beta= 0.70
     Davidson diagonalization with overlap
     ethr =  1.00E-02,  avg # of iterations =  5.9

     negative rho (up, down):  5.981E-05 0.000E+00

     total cpu time spent up to now is        1.4 secs

     total energy              =     -35.61024845 Ry
     estimated scf accuracy    <       0.20069204 Ry

     iteration #  2     ecut=    60.00 Ry     beta= 0.70
     Davidson diagonalization with overlap
     ethr =  2.51E-03,  avg # of iterations =  3.6

     negative rho (up, down):  8.366E-05 0.000E+00

     total cpu time spent up to now is        1.7 secs

     total energy              =     -35.63604591 Ry
     estimated scf accuracy    <       0.00181769 Ry

     iteration #  3     ecut=    60.00 Ry     beta= 0.70
     Davidson diagonalization with overlap
     c_bands:  1 eigenvalues not converged
     c_bands:  2 eigenvalues not converged
     c_bands:  1 eigenvalues not converged
     ethr =  2.27E-05,  avg # of iterations = 14.1

     negative rho (up, down):  1.059E-04 0.000E+00

     total cpu time spent up to now is        2.6 secs

     total energy              =     -35.63708586 Ry
     estimated scf accuracy    <       0.00027504 Ry

     iteration #  4     ecut=    60.00 Ry     beta= 0.70
     Davidson diagonalization with overlap
     c_bands:  1 eigenvalues not converged
     ethr =  3.44E-06,  avg # of iterations =  5.3

     negative rho (up, down):  1.067E-04 0.000E+00

     total cpu time spent up to now is        3.0 secs

     total energy              =     -35.63712827 Ry
     estimated scf accuracy    <       0.00005619 Ry

     iteration #  5     ecut=    60.00 Ry     beta= 0.70
     Davidson diagonalization with overlap
     ethr =  7.02E-07,  avg # of iterations =  3.1

     negative rho (up, down):  1.074E-04 0.000E+00

     total cpu time spent up to now is        3.3 secs

     total energy              =     -35.63713770 Ry
     estimated scf accuracy    <       0.00000004 Ry

     iteration #  6     ecut=    60.00 Ry     beta= 0.70
     Davidson diagonalization with overlap
     ethr =  4.53E-10,  avg # of iterations =  5.4

     negative rho (up, down):  1.076E-04 0.000E+00

     total cpu time spent up to now is        3.7 secs

     total energy              =     -35.63713810 Ry
     estimated scf accuracy    <       0.00000006 Ry

     iteration #  7     ecut=    60.00 Ry     beta= 0.70
     Davidson diagonalization with overlap
     ethr =  4.53E-10,  avg # of iterations =  2.0

     negative rho (up, down):  1.076E-04 0.000E+00

     total cpu time spent up to now is        4.0 secs

     total energy              =     -35.63713811 Ry
     estimated scf accuracy    <          7.3E-10 Ry

     iteration #  8     ecut=    60.00 Ry     beta= 0.70
     Davidson diagonalization with overlap
     ethr =  9.13E-12,  avg # of iterations =  4.0

     negative rho (up, down):  1.076E-04 0.000E+00

     total cpu time spent up to now is        4.3 secs

     total energy              =     -35.63713811 Ry
     estimated scf accuracy    <          7.0E-11 Ry

     iteration #  9     ecut=    60.00 Ry     beta= 0.70
     Davidson diagonalization with overlap
     ethr =  8.76E-13,  avg # of iterations =  2.1

     negative rho (up, down):  1.076E-04 0.000E+00

     total cpu time spent up to now is        4.6 secs

     total energy              =     -35.63713811 Ry
     estimated scf accuracy    <          7.6E-12 Ry

     iteration # 10     ecut=    60.00 Ry     beta= 0.70
     Davidson diagonalization with overlap
     ethr =  1.00E-13,  avg # of iterations =  2.3

     negative rho (up, down):  1.076E-04 0.000E+00

     total cpu time spent up to now is        4.8 secs

     End of self-consistent calculation

          k = 0.0000 0.0000 0.0000 (  5493 PWs)   bands (ev):

   -23.9796 -12.2914  -7.5128  -7.5128  -1.1606  -0.2493   0.5492   1.0072

          k = 0.0000 0.0770 0.0000 (  5486 PWs)   bands (ev):

   -23.8739 -12.1632  -7.9309  -7.7404  -1.0170  -0.1028   0.6966   1.1536

          k = 0.0000 0.1540 0.0000 (  5516 PWs)   bands (ev):

   -23.5575 -11.7808  -9.0465  -8.3166  -0.5858   0.3360   1.1390   1.5923

          k = 0.0000 0.2309 0.0000 (  5516 PWs)   bands (ev):

   -23.0327 -11.1511 -10.5848  -9.0362   0.1323   1.0642   1.8762   2.3194

          k = 0.0000 0.3079 0.0000 (  5494 PWs)   bands (ev):

   -22.3033 -12.3137 -10.2892  -9.7355   1.1348   2.0124   2.4480   2.9049

          k = 0.0000 0.3849 0.0000 (  5508 PWs)   bands (ev):

   -21.3762 -14.0814 -10.3169  -9.2279   0.4684   2.4122   3.4152   3.5033

          k = 0.0000 0.4619 0.0000 (  5502 PWs)   bands (ev):

   -20.2645 -15.7905 -10.7269  -8.0537  -1.3210   3.2874   4.0177   4.9952

          k = 0.0000 0.5389 0.0000 (  5504 PWs)   bands (ev):

   -19.0237 -17.3400 -10.9378  -7.0652  -2.6374   3.2086   5.8219   6.8267

          k = 0.0667 0.1155 0.0000 (  5501 PWs)   bands (ev):

   -23.6629 -11.9079  -8.6447  -8.1959  -0.7295   0.1898   0.9916   1.4462

          k = 0.0667 0.1925 0.0000 (  5509 PWs)   bands (ev):

   -23.2423 -11.4016  -9.8810  -8.9359  -0.1544   0.7738   1.5817   2.0300

          k = 0.0667 0.2694 0.0000 (  5501 PWs)   bands (ev):

   -22.6152 -11.4568 -10.6546  -9.7040   0.7068   1.6418   2.4663   2.8770

          k = 0.0667 0.3464 0.0000 (  5507 PWs)   bands (ev):

   -21.7870 -13.1756 -10.3736  -9.6888   1.3300   1.8503   2.8328   3.6368

          k = 0.0667 0.4234 0.0000 (  5494 PWs)   bands (ev):

   -20.7669 -14.9002 -10.8827  -8.5548  -0.4952   3.2560   3.8780   4.2662

          k = 0.0667 0.5004 0.0000 (  5505 PWs)   bands (ev):

   -19.5781 -16.5356 -11.1987  -7.4058  -2.1017   3.7014   4.9877   5.9641

          k = 0.0667 0.5774 0.0000 (  5514 PWs)   bands (ev):

   -18.5413 -17.7248 -11.3057  -6.7952  -2.8714   3.6578   6.8663   6.9620

          k = 0.1333 0.2309 0.0000 (  5509 PWs)   bands (ev):

   -22.7195 -10.9632 -10.7773  -9.9176   0.5644   1.5013   2.3197   2.7586

          k = 0.1333 0.3079 0.0000 (  5496 PWs)   bands (ev):

   -21.9936 -12.3521 -10.8335  -9.9225   1.5678   1.8972   2.5213   3.3523

          k = 0.1333 0.3849 0.0000 (  5488 PWs)   bands (ev):

   -21.0722 -13.9503 -11.5082  -8.8685   0.1969   2.8503   3.8080   4.6736

          k = 0.1333 0.4619 0.0000 (  5480 PWs)   bands (ev):

   -19.9699 -15.5758 -11.9529  -7.6949  -1.4682   4.3927   5.0277   5.3420

          k = 0.1333 0.5389 0.0000 (  5504 PWs)   bands (ev):

   -18.7460 -17.0791 -12.1753  -6.6851  -2.7430   4.9078   6.2190   6.9460

          k = 0.2000 0.3464 0.0000 (  5486 PWs)   bands (ev):

   -21.1745 -13.3418 -12.0337  -8.9751   0.4832   2.7098   3.6469   4.5320

          k = 0.2000 0.4234 0.0000 (  5482 PWs)   bands (ev):

   -20.1695 -14.6325 -12.8542  -7.8559  -1.0177   4.1232   5.0007   6.0010

          k = 0.2000 0.5004 0.0000 (  5478 PWs)   bands (ev):

   -19.0063 -16.0867 -13.2708  -6.6894  -2.4373   5.7815   6.2943   6.6579

          k = 0.2000 0.5774 0.0000 (  5488 PWs)   bands (ev):

   -18.0098 -17.1963 -13.4001  -6.0194  -3.1967   6.5901   6.7357   7.5523

          k = 0.2667 0.4619 0.0000 (  5452 PWs)   bands (ev):

   -19.0995 -15.3807 -14.0223  -6.7053  -2.2787   5.6454   6.0237   7.4776

          k = 0.2667 0.5389 0.0000 (  5469 PWs)   bands (ev):

   -17.9305 -16.4572 -14.5633  -5.5978  -3.4349   6.1593   7.3339   8.2835

          k = 0.3333 0.5774 0.0000 (  5460 PWs)   bands (ev):

   -16.9513 -16.9513 -15.2546  -4.4929  -4.4929   5.9259   8.5326   8.5327

     the Fermi energy is    -4.5786 ev

!    total energy              =     -35.63713811 Ry

     total all-electron energy =      -151.246301 Ry
     estimated scf accuracy    <          3.3E-13 Ry
     smearing contrib. (-TS)   =      -0.00761853 Ry
     internal energy E=F+TS    =     -35.62951958 Ry

     The total energy is F=E-TS. E is the sum of the following terms:
     one-electron contribution =    -362.83467517 Ry
     hartree contribution      =     182.27867211 Ry
     xc contribution           =      -9.21591770 Ry
     ewald contribution        =     165.30926648 Ry
     one-center paw contrib.   =     -11.16686530 Ry

     convergence has been achieved in  10 iterations

     Writing output data file ./tmp/graphene.save/
 
     init_run     :      0.25s CPU      0.37s WALL (       1 calls)
     electrons    :      3.28s CPU      3.91s WALL (       1 calls)

     Called by init_run:
     wfcinit      :      0.07s CPU      0.10s WALL (       1 calls)
     potinit      :      0.02s CPU      0.03s WALL (       1 calls)
     hinit0       :      0.09s CPU      0.17s WALL (       1 calls)

     Called by electrons:
     c_bands      :      2.89s CPU      3.45s WALL (      10 calls)
     sum_band     :      0.28s CPU      0.29s WALL (      10 calls)
     v_of_rho     :      0.01s CPU      0.02s WALL (      11 calls)
     newd         :      0.06s CPU      0.06s WALL (      11 calls)
     PAW_pot      :      0.03s CPU      0.03s WALL (      11 calls)
     mix_rho      :      0.01s CPU      0.01s WALL (      10 calls)

     Called by c_bands:
     init_us_2    :      0.03s CPU      0.03s WALL (     567 calls)
     cegterg      :      2.84s CPU      3.39s WALL (     270 calls)

     Called by *egterg:
     cdiaghg      :      1.12s CPU      1.53s WALL (    1564 calls)
     h_psi        :      1.12s CPU      1.25s WALL (    1591 calls)
     s_psi        :      0.02s CPU      0.02s WALL (    1591 calls)
     g_psi        :      0.01s CPU      0.01s WALL (    1294 calls)

     Called by h_psi:
     h_psi:calbec :      0.06s CPU      0.06s WALL (    1591 calls)
     vloc_psi     :      1.04s CPU      1.16s WALL (    1591 calls)
     add_vuspsi   :      0.02s CPU      0.02s WALL (    1591 calls)

     General routines
     calbec       :      0.07s CPU      0.07s WALL (    1861 calls)
     fft          :      0.03s CPU      0.11s WALL (      64 calls)
     ffts         :      0.00s CPU      0.00s WALL (      21 calls)
     fftw         :      1.13s CPU      1.24s WALL (   17112 calls)
     interpolate  :      0.00s CPU      0.01s WALL (      11 calls)
 
     Parallel routines
 
     PWSCF        :      3.66s CPU      5.25s WALL

 
   This run was terminated on:  22:29:32   8Nov2021            

=------------------------------------------------------------------------------=
   JOB DONE.
=------------------------------------------------------------------------------=
