 vasp.5.4.4.18Apr17-6-g9f103f2a35 (build Sep 07 2021 20:00:30) complex          
  
 executed on             LinuxIFC date 2021.11.08  09:52:55
 running on   20 total cores
 distrk:  each k-point on   20 cores,    1 groups
 distr:  one band on NCORES_PER_BAND=   1 cores,   20 groups


--------------------------------------------------------------------------------------------------------


 INCAR:
 POTCAR:    PAW C 22Mar2012                       

 ----------------------------------------------------------------------------- 
|                                                                             |
|           W    W    AA    RRRRR   N    N  II  N    N   GGGG   !!!           |
|           W    W   A  A   R    R  NN   N  II  NN   N  G    G  !!!           |
|           W    W  A    A  R    R  N N  N  II  N N  N  G       !!!           |
|           W WW W  AAAAAA  RRRRR   N  N N  II  N  N N  G  GGG   !            |
|           WW  WW  A    A  R   R   N   NN  II  N   NN  G    G                |
|           W    W  A    A  R    R  N    N  II  N    N   GGGG   !!!           |
|                                                                             |
|      For optimal performance we recommend to set                            |
|        NCORE= 4 - approx SQRT( number of cores)                             |
|      NCORE specifies how many cores store one orbital (NPAR=cpu/NCORE).     |
|      This setting can  greatly improve the performance of VASP for DFT.     |
|      The default,   NCORE=1            might be grossly inefficient         |
|      on modern multi-core architectures or massively parallel machines.     |
|      Do your own testing !!!!                                               |
|      Unfortunately you need to use the default for GW and RPA calculations. |
|      (for HF NCORE is supported but not extensively tested yet)             |
|                                                                             |
 ----------------------------------------------------------------------------- 

 POTCAR:    PAW C 22Mar2012                       
   VRHFIN =C: s2p2                                                              
   LEXCH  = CA                                                                  
   EATOM  =   146.6860 eV,   10.7811 Ry                                         
                                                                                
   TITEL  = PAW C 22Mar2012                                                     
   LULTRA =        F    use ultrasoft PP ?                                      
   IUNSCR =        1    unscreen: 0-lin 1-nonlin 2-no                           
   RPACOR =    1.200    partial core radius                                     
   POMASS =   12.011; ZVAL   =    4.000    mass and valenz                      
   RCORE  =    1.500    outmost cutoff radius                                   
   RWIGS  =    1.630; RWIGS  =    0.863    wigner-seitz radius (au A)           
   ENMAX  =  400.000; ENMIN  =  300.000 eV                                      
   ICORE  =        2    local potential                                         
   LCOR   =        T    correct aug charges                                     
   LPAW   =        T    paw PP                                                  
   EAUG   =  644.873                                                            
   DEXC   =    0.000                                                            
   RMAX   =    1.529    core radius for proj-oper                               
   RAUG   =    1.300    factor for augmentation sphere                          
   RDEP   =    1.501    radius for radial grids                                 
   RDEPT  =    1.300    core radius for aug-charge                              
                                                                                
   Atomic configuration                                                         
    4 entries                                                                   
     n  l   j            E        occ.                                          
     1  0  0.50      -270.6511   2.0000                                         
     2  0  0.50       -13.6383   2.0000                                         
     2  1  0.50        -5.4212   2.0000                                         
     3  2  1.50        -5.4423   0.0000                                         
   Description                                                                  
     l       E           TYP  RCUT    TYP  RCUT                                 
     0    -13.6382841     23  1.200                                             
     0     -7.9195854     23  1.200                                             
     1     -5.4211532     23  1.500                                             
     1     34.0145650     23  1.500                                             
     2     -5.4423304      7  1.500                                             
  local pseudopotential read in
  partial core-charges read in
  partial kinetic energy density read in
  kinetic energy density of atom read in
  atomic valenz-charges read in
  non local Contribution for L=           0  read in
    real space projection operators read in
  non local Contribution for L=           0  read in
    real space projection operators read in
  non local Contribution for L=           1  read in
    real space projection operators read in
  non local Contribution for L=           1  read in
    real space projection operators read in
    PAW grid and wavefunctions read in
 
   number of l-projection  operators is LMAX  =           4
   number of lm-projection operators is LMMAX =           8
 
  PAW C 22Mar2012                       :
 energy of atom  1       EATOM= -146.6860
 kinetic energy error for atom=    0.0070 (will be added to EATOM!!)
 
 
 POSCAR:  C                                      
  positions in cartesian coordinates
  No initial velocities read in
 exchange correlation table for  LEXCH =        2
   RHO(1)=    0.500       N(1)  =     2000
   RHO(2)=  100.500       N(2)  =     4000
 


--------------------------------------------------------------------------------------------------------


 ion  position               nearest neighbor table
   1  0.000  0.000  0.500-   2 1.41   2 1.41   2 1.41
   2  0.667  0.333  0.500-   1 1.41   1 1.41   1 1.41
 
  LATTYP: Found a hexagonal cell.
 ALAT       =     2.4472604982
 C/A-ratio  =     8.1724033935
  
  Lattice vectors:
  
 A1 = (   2.4472604982,   0.0000000000,   0.0000000000)
 A2 = (  -1.2236302491,   2.1193897611,   0.0000000000)
 A3 = (   0.0000000000,   0.0000000000,  20.0000000000)


Analysis of symmetry for initial positions (statically):
=====================================================================
 Subroutine PRICEL returns:
 Original cell was already a primitive cell.
 

 Routine SETGRP: Setting up the symmetry group for a 
 hexagonal supercell.


 Subroutine GETGRP returns: Found 24 space group operations
 (whereof 12 operations were pure point group operations)
 out of a pool of 24 trial point group operations.


The static configuration has the point symmetry D_3h.
 The point group associated with its full space group is D_6h.


Analysis of symmetry for dynamics (positions and initial velocities):
=====================================================================
 Subroutine PRICEL returns:
 Original cell was already a primitive cell.
 

 Routine SETGRP: Setting up the symmetry group for a 
 hexagonal supercell.


 Subroutine GETGRP returns: Found 24 space group operations
 (whereof 12 operations were pure point group operations)
 out of a pool of 24 trial point group operations.


The dynamic configuration has the point symmetry D_3h.
 The point group associated with its full space group is D_6h.


 Subroutine INISYM returns: Found 24 space group operations
 (whereof 12 operations are pure point group operations),
 and found     1 'primitive' translations

 
 
 KPOINTS: KPOINTS created by Atomic Simulation Env

Automatic generation of k-mesh.
Space group operators:
 irot       det(A)        alpha          n_x          n_y          n_z        tau_x        tau_y        tau_z
    1     1.000000     0.000000     1.000000     0.000000     0.000000     0.000000     0.000000     0.000000
    2    -1.000000    60.000000     0.000000     0.000000    -1.000000     0.000000     0.000000     0.000000
    3     1.000000   120.000000     0.000000     0.000000    -1.000000     0.000000     0.000000     0.000000
    4    -1.000000   180.000000     0.000000     0.000000     1.000000     0.000000     0.000000     0.000000
    5     1.000000   120.000000     0.000000     0.000000     1.000000     0.000000     0.000000     0.000000
    6    -1.000000    60.000000     0.000000     0.000000     1.000000     0.000000     0.000000     0.000000
    7    -1.000000   180.000000     1.000000     0.000000     0.000000     0.000000     0.000000     0.000000
    8     1.000000   180.000000     0.866025    -0.500000     0.000000     0.000000     0.000000     0.000000
    9    -1.000000   180.000000     0.500000    -0.866025     0.000000     0.000000     0.000000     0.000000
   10     1.000000   180.000000     0.000000     1.000000     0.000000     0.000000     0.000000     0.000000
   11    -1.000000   180.000000    -0.500000    -0.866025     0.000000     0.000000     0.000000     0.000000
   12     1.000000   180.000000     0.866025     0.500000     0.000000     0.000000     0.000000     0.000000
   13    -1.000000     0.000000     1.000000     0.000000     0.000000     0.666667     0.333333     0.000000
   14     1.000000    60.000000     0.000000     0.000000    -1.000000     0.666667     0.333333     0.000000
   15    -1.000000   120.000000     0.000000     0.000000    -1.000000     0.666667     0.333333     0.000000
   16     1.000000   180.000000     0.000000     0.000000     1.000000     0.666667     0.333333     0.000000
   17    -1.000000   120.000000     0.000000     0.000000     1.000000     0.666667     0.333333     0.000000
   18     1.000000    60.000000     0.000000     0.000000     1.000000     0.666667     0.333333     0.000000
   19     1.000000   180.000000     1.000000     0.000000     0.000000     0.666667     0.333333     0.000000
   20    -1.000000   180.000000     0.866025    -0.500000     0.000000     0.666667     0.333333     0.000000
   21     1.000000   180.000000     0.500000    -0.866025     0.000000     0.666667     0.333333     0.000000
   22    -1.000000   180.000000     0.000000     1.000000     0.000000     0.666667     0.333333     0.000000
   23     1.000000   180.000000    -0.500000    -0.866025     0.000000     0.666667     0.333333     0.000000
   24    -1.000000   180.000000     0.866025     0.500000     0.000000     0.666667     0.333333     0.000000
 
 Subroutine IBZKPT returns following result:
 ===========================================
 
 Found     27 irreducible k-points:
 
 Following reciprocal coordinates:
            Coordinates               Weight
  0.000000  0.000000  0.000000      1.000000
  0.066667 -0.000000  0.000000      6.000000
  0.133333  0.000000  0.000000      6.000000
  0.200000  0.000000  0.000000      6.000000
  0.266667 -0.000000  0.000000      6.000000
  0.333333  0.000000  0.000000      6.000000
  0.400000  0.000000  0.000000      6.000000
  0.466667 -0.000000  0.000000      6.000000
  0.066667  0.066667  0.000000      6.000000
  0.133333  0.066667  0.000000     12.000000
  0.200000  0.066667  0.000000     12.000000
  0.266667  0.066667  0.000000     12.000000
  0.333333  0.066667  0.000000     12.000000
  0.400000  0.066667  0.000000     12.000000
  0.466667  0.066667  0.000000      6.000000
  0.133333  0.133333  0.000000      6.000000
  0.200000  0.133333  0.000000     12.000000
  0.266667  0.133333  0.000000     12.000000
  0.333333  0.133333  0.000000     12.000000
  0.400000  0.133333  0.000000     12.000000
  0.200000  0.200000  0.000000      6.000000
  0.266667  0.200000  0.000000     12.000000
  0.333333  0.200000  0.000000     12.000000
  0.400000  0.200000  0.000000      6.000000
  0.266667  0.266667  0.000000      6.000000
  0.333333  0.266667  0.000000     12.000000
  0.333333  0.333333  0.000000      2.000000
 
 Following cartesian coordinates:
            Coordinates               Weight
  0.000000  0.000000  0.000000      1.000000
  0.027241  0.015728  0.000000      6.000000
  0.054483  0.031456  0.000000      6.000000
  0.081724  0.047183  0.000000      6.000000
  0.108965  0.062911  0.000000      6.000000
  0.136207  0.078639  0.000000      6.000000
  0.163448  0.094367  0.000000      6.000000
  0.190689  0.110095  0.000000      6.000000
  0.027241  0.047183  0.000000      6.000000
  0.054483  0.062911  0.000000     12.000000
  0.081724  0.078639  0.000000     12.000000
  0.108965  0.094367  0.000000     12.000000
  0.136207  0.110095  0.000000     12.000000
  0.163448  0.125822  0.000000     12.000000
  0.190689  0.141550  0.000000      6.000000
  0.054483  0.094367  0.000000      6.000000
  0.081724  0.110095  0.000000     12.000000
  0.108965  0.125822  0.000000     12.000000
  0.136207  0.141550  0.000000     12.000000
  0.163448  0.157278  0.000000     12.000000
  0.081724  0.141550  0.000000      6.000000
  0.108965  0.157278  0.000000     12.000000
  0.136207  0.173006  0.000000     12.000000
  0.163448  0.188734  0.000000      6.000000
  0.108965  0.188734  0.000000      6.000000
  0.136207  0.204461  0.000000     12.000000
  0.136207  0.235917  0.000000      2.000000
 
 
 Subroutine IBZKPT_HF returns following result:
 ==============================================
 
 Found    225 k-points in 1st BZ
 the following    225 k-points will be used (e.g. in the exchange kernel)
 Following reciprocal coordinates:   # in IRBZ
  0.000000  0.000000  0.000000    0.00444444   1 t-inv F
  0.066667 -0.000000  0.000000    0.00444444   2 t-inv F
  0.133333  0.000000  0.000000    0.00444444   3 t-inv F
  0.200000  0.000000  0.000000    0.00444444   4 t-inv F
  0.266667 -0.000000  0.000000    0.00444444   5 t-inv F
  0.333333  0.000000  0.000000    0.00444444   6 t-inv F
  0.400000  0.000000  0.000000    0.00444444   7 t-inv F
  0.466667 -0.000000  0.000000    0.00444444   8 t-inv F
  0.066667  0.066667  0.000000    0.00444444   9 t-inv F
  0.133333  0.066667  0.000000    0.00444444  10 t-inv F
  0.200000  0.066667  0.000000    0.00444444  11 t-inv F
  0.266667  0.066667  0.000000    0.00444444  12 t-inv F
  0.333333  0.066667  0.000000    0.00444444  13 t-inv F
  0.400000  0.066667  0.000000    0.00444444  14 t-inv F
  0.466667  0.066667  0.000000    0.00444444  15 t-inv F
  0.133333  0.133333  0.000000    0.00444444  16 t-inv F
  0.200000  0.133333  0.000000    0.00444444  17 t-inv F
  0.266667  0.133333  0.000000    0.00444444  18 t-inv F
  0.333333  0.133333  0.000000    0.00444444  19 t-inv F
  0.400000  0.133333  0.000000    0.00444444  20 t-inv F
  0.200000  0.200000  0.000000    0.00444444  21 t-inv F
  0.266667  0.200000  0.000000    0.00444444  22 t-inv F
  0.333333  0.200000  0.000000    0.00444444  23 t-inv F
  0.400000  0.200000  0.000000    0.00444444  24 t-inv F
  0.266667  0.266667  0.000000    0.00444444  25 t-inv F
  0.333333  0.266667  0.000000    0.00444444  26 t-inv F
  0.333333  0.333333  0.000000    0.00444444  27 t-inv F
 -0.000000 -0.066667  0.000000    0.00444444   2 t-inv F
 -0.066667  0.066667  0.000000    0.00444444   2 t-inv F
 -0.066667  0.000000  0.000000    0.00444444   2 t-inv F
  0.000000  0.066667  0.000000    0.00444444   2 t-inv F
  0.066667 -0.066667  0.000000    0.00444444   2 t-inv F
  0.000000 -0.133333  0.000000    0.00444444   3 t-inv F
 -0.133333  0.133333  0.000000    0.00444444   3 t-inv F
 -0.133333 -0.000000  0.000000    0.00444444   3 t-inv F
 -0.000000  0.133333  0.000000    0.00444444   3 t-inv F
  0.133333 -0.133333  0.000000    0.00444444   3 t-inv F
  0.000000 -0.200000  0.000000    0.00444444   4 t-inv F
 -0.200000  0.200000  0.000000    0.00444444   4 t-inv F
 -0.200000 -0.000000  0.000000    0.00444444   4 t-inv F
 -0.000000  0.200000  0.000000    0.00444444   4 t-inv F
  0.200000 -0.200000  0.000000    0.00444444   4 t-inv F
 -0.000000 -0.266667  0.000000    0.00444444   5 t-inv F
 -0.266667  0.266667  0.000000    0.00444444   5 t-inv F
 -0.266667  0.000000  0.000000    0.00444444   5 t-inv F
  0.000000  0.266667  0.000000    0.00444444   5 t-inv F
  0.266667 -0.266667  0.000000    0.00444444   5 t-inv F
  0.000000 -0.333333  0.000000    0.00444444   6 t-inv F
 -0.333333  0.333333  0.000000    0.00444444   6 t-inv F
 -0.333333  0.000000  0.000000    0.00444444   6 t-inv F
  0.000000  0.333333  0.000000    0.00444444   6 t-inv F
  0.333333 -0.333333  0.000000    0.00444444   6 t-inv F
  0.000000 -0.400000  0.000000    0.00444444   7 t-inv F
 -0.400000  0.400000  0.000000    0.00444444   7 t-inv F
 -0.400000 -0.000000  0.000000    0.00444444   7 t-inv F
 -0.000000  0.400000  0.000000    0.00444444   7 t-inv F
  0.400000 -0.400000  0.000000    0.00444444   7 t-inv F
 -0.000000 -0.466667  0.000000    0.00444444   8 t-inv F
 -0.466667  0.466667  0.000000    0.00444444   8 t-inv F
 -0.466667  0.000000  0.000000    0.00444444   8 t-inv F
  0.000000  0.466667  0.000000    0.00444444   8 t-inv F
  0.466667 -0.466667  0.000000    0.00444444   8 t-inv F
  0.066667 -0.133333  0.000000    0.00444444   9 t-inv F
 -0.133333  0.066667  0.000000    0.00444444   9 t-inv F
 -0.066667  0.133333  0.000000    0.00444444   9 t-inv F
 -0.066667 -0.066667  0.000000    0.00444444   9 t-inv F
  0.133333 -0.066667  0.000000    0.00444444   9 t-inv F
  0.066667 -0.200000  0.000000    0.00444444  10 t-inv F
 -0.200000  0.133333  0.000000    0.00444444  10 t-inv F
 -0.133333  0.200000  0.000000    0.00444444  10 t-inv F
 -0.066667 -0.133333  0.000000    0.00444444  10 t-inv F
  0.200000 -0.066667  0.000000    0.00444444  10 t-inv F
 -0.133333 -0.066667  0.000000    0.00444444  10 t-inv F
 -0.066667  0.200000  0.000000    0.00444444  10 t-inv F
  0.200000 -0.133333  0.000000    0.00444444  10 t-inv F
  0.133333 -0.200000  0.000000    0.00444444  10 t-inv F
  0.066667  0.133333  0.000000    0.00444444  10 t-inv F
 -0.200000  0.066667  0.000000    0.00444444  10 t-inv F
  0.066667 -0.266667  0.000000    0.00444444  11 t-inv F
 -0.266667  0.200000  0.000000    0.00444444  11 t-inv F
 -0.200000  0.266667  0.000000    0.00444444  11 t-inv F
 -0.066667 -0.200000  0.000000    0.00444444  11 t-inv F
  0.266667 -0.066667  0.000000    0.00444444  11 t-inv F
 -0.200000 -0.066667  0.000000    0.00444444  11 t-inv F
 -0.066667  0.266667  0.000000    0.00444444  11 t-inv F
  0.266667 -0.200000  0.000000    0.00444444  11 t-inv F
  0.200000 -0.266667  0.000000    0.00444444  11 t-inv F
  0.066667  0.200000  0.000000    0.00444444  11 t-inv F
 -0.266667  0.066667  0.000000    0.00444444  11 t-inv F
  0.066667 -0.333333  0.000000    0.00444444  12 t-inv F
 -0.333333  0.266667  0.000000    0.00444444  12 t-inv F
 -0.266667  0.333333  0.000000    0.00444444  12 t-inv F
 -0.066667 -0.266667  0.000000    0.00444444  12 t-inv F
  0.333333 -0.066667  0.000000    0.00444444  12 t-inv F
 -0.266667 -0.066667  0.000000    0.00444444  12 t-inv F
 -0.066667  0.333333  0.000000    0.00444444  12 t-inv F
  0.333333 -0.266667  0.000000    0.00444444  12 t-inv F
  0.266667 -0.333333  0.000000    0.00444444  12 t-inv F
  0.066667  0.266667  0.000000    0.00444444  12 t-inv F
 -0.333333  0.066667  0.000000    0.00444444  12 t-inv F
  0.066667 -0.400000  0.000000    0.00444444  13 t-inv F
 -0.400000  0.333333  0.000000    0.00444444  13 t-inv F
 -0.333333  0.400000  0.000000    0.00444444  13 t-inv F
 -0.066667 -0.333333  0.000000    0.00444444  13 t-inv F
  0.400000 -0.066667  0.000000    0.00444444  13 t-inv F
 -0.333333 -0.066667  0.000000    0.00444444  13 t-inv F
 -0.066667  0.400000  0.000000    0.00444444  13 t-inv F
  0.400000 -0.333333  0.000000    0.00444444  13 t-inv F
  0.333333 -0.400000  0.000000    0.00444444  13 t-inv F
  0.066667  0.333333  0.000000    0.00444444  13 t-inv F
 -0.400000  0.066667  0.000000    0.00444444  13 t-inv F
  0.066667 -0.466667  0.000000    0.00444444  14 t-inv F
 -0.466667  0.400000  0.000000    0.00444444  14 t-inv F
 -0.400000  0.466667  0.000000    0.00444444  14 t-inv F
 -0.066667 -0.400000  0.000000    0.00444444  14 t-inv F
  0.466667 -0.066667  0.000000    0.00444444  14 t-inv F
 -0.400000 -0.066667  0.000000    0.00444444  14 t-inv F
 -0.066667  0.466667  0.000000    0.00444444  14 t-inv F
  0.466667 -0.400000  0.000000    0.00444444  14 t-inv F
  0.400000 -0.466667  0.000000    0.00444444  14 t-inv F
  0.066667  0.400000  0.000000    0.00444444  14 t-inv F
 -0.466667  0.066667  0.000000    0.00444444  14 t-inv F
  0.066667 -0.533333  0.000000    0.00444444  15 t-inv F
 -0.533333  0.466667  0.000000    0.00444444  15 t-inv F
 -0.466667  0.533333  0.000000    0.00444444  15 t-inv F
 -0.066667 -0.466667  0.000000    0.00444444  15 t-inv F
  0.533333 -0.066667  0.000000    0.00444444  15 t-inv F
  0.133333 -0.266667  0.000000    0.00444444  16 t-inv F
 -0.266667  0.133333  0.000000    0.00444444  16 t-inv F
 -0.133333  0.266667  0.000000    0.00444444  16 t-inv F
 -0.133333 -0.133333  0.000000    0.00444444  16 t-inv F
  0.266667 -0.133333  0.000000    0.00444444  16 t-inv F
  0.133333 -0.333333  0.000000    0.00444444  17 t-inv F
 -0.333333  0.200000  0.000000    0.00444444  17 t-inv F
 -0.200000  0.333333  0.000000    0.00444444  17 t-inv F
 -0.133333 -0.200000  0.000000    0.00444444  17 t-inv F
  0.333333 -0.133333  0.000000    0.00444444  17 t-inv F
 -0.200000 -0.133333  0.000000    0.00444444  17 t-inv F
 -0.133333  0.333333  0.000000    0.00444444  17 t-inv F
  0.333333 -0.200000  0.000000    0.00444444  17 t-inv F
  0.200000 -0.333333  0.000000    0.00444444  17 t-inv F
  0.133333  0.200000  0.000000    0.00444444  17 t-inv F
 -0.333333  0.133333  0.000000    0.00444444  17 t-inv F
  0.133333 -0.400000  0.000000    0.00444444  18 t-inv F
 -0.400000  0.266667  0.000000    0.00444444  18 t-inv F
 -0.266667  0.400000  0.000000    0.00444444  18 t-inv F
 -0.133333 -0.266667  0.000000    0.00444444  18 t-inv F
  0.400000 -0.133333  0.000000    0.00444444  18 t-inv F
 -0.266667 -0.133333  0.000000    0.00444444  18 t-inv F
 -0.133333  0.400000  0.000000    0.00444444  18 t-inv F
  0.400000 -0.266667  0.000000    0.00444444  18 t-inv F
  0.266667 -0.400000  0.000000    0.00444444  18 t-inv F
  0.133333  0.266667  0.000000    0.00444444  18 t-inv F
 -0.400000  0.133333  0.000000    0.00444444  18 t-inv F
  0.133333 -0.466667  0.000000    0.00444444  19 t-inv F
 -0.466667  0.333333  0.000000    0.00444444  19 t-inv F
 -0.333333  0.466667  0.000000    0.00444444  19 t-inv F
 -0.133333 -0.333333  0.000000    0.00444444  19 t-inv F
  0.466667 -0.133333  0.000000    0.00444444  19 t-inv F
 -0.333333 -0.133333  0.000000    0.00444444  19 t-inv F
 -0.133333  0.466667  0.000000    0.00444444  19 t-inv F
  0.466667 -0.333333  0.000000    0.00444444  19 t-inv F
  0.333333 -0.466667  0.000000    0.00444444  19 t-inv F
  0.133333  0.333333  0.000000    0.00444444  19 t-inv F
 -0.466667  0.133333  0.000000    0.00444444  19 t-inv F
  0.133333 -0.533333  0.000000    0.00444444  20 t-inv F
 -0.533333  0.400000  0.000000    0.00444444  20 t-inv F
 -0.400000  0.533333  0.000000    0.00444444  20 t-inv F
 -0.133333 -0.400000  0.000000    0.00444444  20 t-inv F
  0.533333 -0.133333  0.000000    0.00444444  20 t-inv F
 -0.400000 -0.133333  0.000000    0.00444444  20 t-inv F
 -0.133333  0.533333  0.000000    0.00444444  20 t-inv F
  0.533333 -0.400000  0.000000    0.00444444  20 t-inv F
  0.400000 -0.533333  0.000000    0.00444444  20 t-inv F
  0.133333  0.400000  0.000000    0.00444444  20 t-inv F
 -0.533333  0.133333  0.000000    0.00444444  20 t-inv F
  0.200000 -0.400000  0.000000    0.00444444  21 t-inv F
 -0.400000  0.200000  0.000000    0.00444444  21 t-inv F
 -0.200000  0.400000  0.000000    0.00444444  21 t-inv F
 -0.200000 -0.200000  0.000000    0.00444444  21 t-inv F
  0.400000 -0.200000  0.000000    0.00444444  21 t-inv F
  0.200000 -0.466667  0.000000    0.00444444  22 t-inv F
 -0.466667  0.266667  0.000000    0.00444444  22 t-inv F
 -0.266667  0.466667  0.000000    0.00444444  22 t-inv F
 -0.200000 -0.266667  0.000000    0.00444444  22 t-inv F
  0.466667 -0.200000  0.000000    0.00444444  22 t-inv F
 -0.266667 -0.200000  0.000000    0.00444444  22 t-inv F
 -0.200000  0.466667  0.000000    0.00444444  22 t-inv F
  0.466667 -0.266667  0.000000    0.00444444  22 t-inv F
  0.266667 -0.466667  0.000000    0.00444444  22 t-inv F
  0.200000  0.266667  0.000000    0.00444444  22 t-inv F
 -0.466667  0.200000  0.000000    0.00444444  22 t-inv F
  0.200000 -0.533333  0.000000    0.00444444  23 t-inv F
 -0.533333  0.333333  0.000000    0.00444444  23 t-inv F
 -0.333333  0.533333  0.000000    0.00444444  23 t-inv F
 -0.200000 -0.333333  0.000000    0.00444444  23 t-inv F
  0.533333 -0.200000  0.000000    0.00444444  23 t-inv F
 -0.333333 -0.200000  0.000000    0.00444444  23 t-inv F
 -0.200000  0.533333  0.000000    0.00444444  23 t-inv F
  0.533333 -0.333333  0.000000    0.00444444  23 t-inv F
  0.333333 -0.533333  0.000000    0.00444444  23 t-inv F
  0.200000  0.333333  0.000000    0.00444444  23 t-inv F
 -0.533333  0.200000  0.000000    0.00444444  23 t-inv F
  0.200000 -0.600000  0.000000    0.00444444  24 t-inv F
 -0.600000  0.400000  0.000000    0.00444444  24 t-inv F
 -0.400000  0.600000  0.000000    0.00444444  24 t-inv F
 -0.200000 -0.400000  0.000000    0.00444444  24 t-inv F
  0.600000 -0.200000  0.000000    0.00444444  24 t-inv F
  0.266667 -0.533333  0.000000    0.00444444  25 t-inv F
 -0.533333  0.266667  0.000000    0.00444444  25 t-inv F
 -0.266667  0.533333  0.000000    0.00444444  25 t-inv F
 -0.266667 -0.266667  0.000000    0.00444444  25 t-inv F
  0.533333 -0.266667  0.000000    0.00444444  25 t-inv F
  0.266667 -0.600000  0.000000    0.00444444  26 t-inv F
 -0.600000  0.333333  0.000000    0.00444444  26 t-inv F
 -0.333333  0.600000  0.000000    0.00444444  26 t-inv F
 -0.266667 -0.333333  0.000000    0.00444444  26 t-inv F
  0.600000 -0.266667  0.000000    0.00444444  26 t-inv F
 -0.333333 -0.266667  0.000000    0.00444444  26 t-inv F
 -0.266667  0.600000  0.000000    0.00444444  26 t-inv F
  0.600000 -0.333333  0.000000    0.00444444  26 t-inv F
  0.333333 -0.600000  0.000000    0.00444444  26 t-inv F
  0.266667  0.333333  0.000000    0.00444444  26 t-inv F
 -0.600000  0.266667  0.000000    0.00444444  26 t-inv F
 -0.333333  0.666667  0.000000    0.00444444  27 t-inv F


--------------------------------------------------------------------------------------------------------




 Dimension of arrays:
   k-points           NKPTS =     27   k-points in BZ     NKDIM =     27   number of bands    NBANDS=     20
   number of dos      NEDOS =    301   number of ions     NIONS =      2
   non local maximal  LDIM  =      4   non local SUM 2l+1 LMDIM =      8
   total plane-waves  NPLWV =  48600
   max r-space proj   IRMAX =      1   max aug-charges    IRDMAX=   5728
   dimension x,y,z NGX =    18 NGY =   18 NGZ =  150
   dimension x,y,z NGXF=    36 NGYF=   36 NGZF=  300
   support grid    NGXF=    36 NGYF=   36 NGZF=  300
   ions per type =               2
   NGX,Y,Z   is equivalent  to a cutoff of  12.23, 12.23, 12.47 a.u.
   NGXF,Y,Z  is equivalent  to a cutoff of  24.46, 24.46, 24.94 a.u.

 SYSTEM =  unknown system                          
 POSCAR =   C                                      

 Startparameter for this run:
   NWRITE =      2    write-flag & timer
   PREC   = accura    normal or accurate (medium, high low for compatibility)
   ISTART =      1    job   : 0-new  1-cont  2-samecut
   ICHARG =     11    charge: 1-file 2-atom 10-const
   ISPIN  =      1    spin polarized calculation?
   LNONCOLLINEAR =      F non collinear calculations
   LSORBIT =      F    spin-orbit coupling
   INIWAV =      1    electr: 0-lowe 1-rand  2-diag
   LASPH  =      F    aspherical Exc in radial PAW
   METAGGA=      F    non-selfconsistent MetaGGA calc.

 Electronic Relaxation 1
   ENCUT  =  520.0 eV  38.22 Ry    6.18 a.u.   4.55  4.55 37.19*2*pi/ulx,y,z
   ENINI  =  520.0     initial cutoff
   ENAUG  =  644.9 eV  augmentation charge cutoff
   NELM   =     60;   NELMIN=  2; NELMDL=  0     # of ELM steps 
   EDIFF  = 0.1E-07   stopping-criterion for ELM
   LREAL  =      F    real-space projection
   NLSPLINE    = F    spline interpolate recip. space projectors
   LCOMPAT=      F    compatible to vasp.4.4
   GGA_COMPAT  = T    GGA compatible to vasp.4.4-vasp.4.6
   LMAXPAW     = -100 max onsite density
   LMAXMIX     =    2 max onsite mixed and CHGCAR
   VOSKOWN=      0    Vosko Wilk Nusair interpolation
   ROPT   =    0.00000
 Ionic relaxation
   EDIFFG = 0.1E-06   stopping-criterion for IOM
   NSW    =      0    number of steps for IOM
   NBLOCK =      1;   KBLOCK =      1    inner block; outer block 
   IBRION =     -1    ionic relax: 0-MD 1-quasi-New 2-CG
   NFREE  =      0    steps in history (QN), initial steepest desc. (CG)
   ISIF   =      2    stress and relaxation
   IWAVPR =     10    prediction:  0-non 1-charg 2-wave 3-comb
   ISYM   =      2    0-nonsym 1-usesym 2-fastsym
   LCORR  =      T    Harris-Foulkes like correction to forces

   POTIM  = 0.5000    time-step for ionic-motion
   TEIN   =    0.0    initial temperature
   TEBEG  =    0.0;   TEEND  =   0.0 temperature during run
   SMASS  =  -3.00    Nose mass-parameter (am)
   estimated Nose-frequenzy (Omega)   =  0.10E-29 period in steps =****** mass=  -0.137E-27a.u.
   SCALEE = 1.0000    scale energy and forces
   NPACO  =    256;   APACO  = 16.0  distance and # of slots for P.C.
   PSTRESS=    0.0 pullay stress

  Mass of Ions in am
   POMASS =  12.01
  Ionic Valenz
   ZVAL   =   4.00
  Atomic Wigner-Seitz radii
   RWIGS  =  -1.00
  virtual crystal weights 
   VCA    =   1.00
   NELECT =       8.0000    total number of electrons
   NUPDOWN=      -1.0000    fix difference up-down

 DOS related values:
   EMIN   =  10.00;   EMAX   =-10.00  energy-range for DOS
   EFERMI =   0.00
   ISMEAR =     0;   SIGMA  =   0.10  broadening in eV -4-tet -1-fermi 0-gaus

 Electronic relaxation 2 (details)
   IALGO  =     38    algorithm
   LDIAG  =      T    sub-space diagonalisation (order eigenvalues)
   LSUBROT=      F    optimize rotation matrix (better conditioning)
   TURBO    =      0    0=normal 1=particle mesh
   IRESTART =      0    0=no restart 2=restart with 2 vectors
   NREBOOT  =      0    no. of reboots
   NMIN     =      0    reboot dimension
   EREF     =   0.00    reference energy to select bands
   IMIX   =      4    mixing-type and parameters
     AMIX     =   0.40;   BMIX     =  1.00
     AMIX_MAG =   1.60;   BMIX_MAG =  1.00
     AMIN     =   0.10
     WC   =   100.;   INIMIX=   1;  MIXPRE=   1;  MAXMIX= -45

 Intra band minimization:
   WEIMIN = 0.0000     energy-eigenvalue tresh-hold
   EBREAK =  0.13E-09  absolut break condition
   DEPER  =   0.30     relativ break condition  

   TIME   =   0.40     timestep for ELM

  volume/ion in A,a.u.               =      51.87       350.02
  Fermi-wavevector in a.u.,A,eV,Ry     =   0.696837  1.316831  6.606740  0.485582
  Thomas-Fermi vector in A             =   1.779998
 
 Write flags
   LWAVE        =      F    write WAVECAR
   LDOWNSAMPLE  =      F    k-point downsampling of WAVECAR
   LCHARG       =      F    write CHGCAR
   LVTOT        =      F    write LOCPOT, total local potential
   LVHAR        =      F    write LOCPOT, Hartree potential only
   LELF         =      F    write electronic localiz. function (ELF)
   LORBIT       =      0    0 simple, 1 ext, 2 COOP (PROOUT), +10 PAW based schemes


 Dipole corrections
   LMONO  =      F    monopole corrections only (constant potential shift)
   LDIPOL =      F    correct potential (dipole corrections)
   IDIPOL =      0    1-x, 2-y, 3-z, 4-all directions 
   EPSILON=  1.0000000 bulk dielectric constant

 Exchange correlation treatment:
   GGA     =    --    GGA type
   LEXCH   =     2    internal setting for exchange type
   VOSKOWN=      0    Vosko Wilk Nusair interpolation
   LHFCALC =     F    Hartree Fock is set to
   LHFONE  =     F    Hartree Fock one center treatment
   AEXX    =    0.0000 exact exchange contribution

 Linear response parameters
   LEPSILON=     F    determine dielectric tensor
   LRPA    =     F    only Hartree local field effects (RPA)
   LNABLA  =     F    use nabla operator in PAW spheres
   LVEL    =     F    velocity operator in full k-point grid
   LINTERFAST=   F  fast interpolation
   KINTER  =     0    interpolate to denser k-point grid
   CSHIFT  =0.1000    complex shift for real part using Kramers Kronig
   OMEGAMAX=  -1.0    maximum frequency
   DEG_THRESHOLD= 0.2000000E-02 threshold for treating states as degnerate
   RTIME   =   -0.100 relaxation time in fs
  (WPLASMAI=    0.000 imaginary part of plasma frequency in eV, 0.658/RTIME)
   DFIELD  = 0.0000000 0.0000000 0.0000000 field for delta impulse in time
 
 Orbital magnetization related:
   ORBITALMAG=     F  switch on orbital magnetization
   LCHIMAG   =     F  perturbation theory with respect to B field
   DQ        =  0.001000  dq finite difference perturbation B field
   LLRAUG    =     F  two centre corrections for induced B field



--------------------------------------------------------------------------------------------------------


 Static calculation
 charge density and potential remain constant during run
 non-spin polarized calculation
 Variant of blocked Davidson
 Davidson routine will perform the subspace rotation
 perform sub-space diagonalisation
    after iterative eigenvector-optimisation
 no mixing
 using additional bands           16
 reciprocal scheme for non local part
 use partial core corrections
 calculate Harris-corrections to forces 
   (improved forces if not selfconsistent)
 use of overlap-Matrix (Vanderbilt PP)
 Gauss-broadening in eV      SIGMA  =   0.10


--------------------------------------------------------------------------------------------------------


  energy-cutoff  :      520.00
  volume of cell :      103.73
      direct lattice vectors                 reciprocal lattice vectors
     2.447260498  0.000000000  0.000000000     0.408620170  0.235916965  0.000000000
    -1.223630249  2.119389761  0.000000000     0.000000000  0.471833930  0.000000000
     0.000000000  0.000000000 20.000000000     0.000000000  0.000000000  0.050000000

  length of vectors
     2.447260498  2.447260498 20.000000000     0.471833930  0.471833930  0.050000000


 
 old parameters found on file WAVECAR:
  energy-cutoff  :      520.00
  volume of cell :      103.73
      direct lattice vectors                 reciprocal lattice vectors
     2.447260498  0.000000000  0.000000000     0.408620170  0.235916965  0.000000000
    -1.223630249  2.119389761  0.000000000     0.000000000  0.471833930  0.000000000
     0.000000000  0.000000000 20.000000000     0.000000000  0.000000000  0.050000000

  length of vectors

 
 k-points in units of 2pi/SCALE and weight: KPOINTS created by Atomic Simulation Env
   0.00000000  0.00000000  0.00000000       0.004
   0.02724134  0.01572780  0.00000000       0.027
   0.05448269  0.03145560  0.00000000       0.027
   0.08172403  0.04718339  0.00000000       0.027
   0.10896538  0.06291119  0.00000000       0.027
   0.13620672  0.07863899  0.00000000       0.027
   0.16344807  0.09436679  0.00000000       0.027
   0.19068941  0.11009458  0.00000000       0.027
   0.02724134  0.04718339  0.00000000       0.027
   0.05448269  0.06291119  0.00000000       0.053
   0.08172403  0.07863899  0.00000000       0.053
   0.10896538  0.09436679  0.00000000       0.053
   0.13620672  0.11009458  0.00000000       0.053
   0.16344807  0.12582238  0.00000000       0.053
   0.19068941  0.14155018  0.00000000       0.027
   0.05448269  0.09436679  0.00000000       0.027
   0.08172403  0.11009458  0.00000000       0.053
   0.10896538  0.12582238  0.00000000       0.053
   0.13620672  0.14155018  0.00000000       0.053
   0.16344807  0.15727798  0.00000000       0.053
   0.08172403  0.14155018  0.00000000       0.027
   0.10896538  0.15727798  0.00000000       0.053
   0.13620672  0.17300577  0.00000000       0.053
   0.16344807  0.18873357  0.00000000       0.027
   0.10896538  0.18873357  0.00000000       0.027
   0.13620672  0.20446137  0.00000000       0.053
   0.13620672  0.23591696  0.00000000       0.009
 
 k-points in reciprocal lattice and weights: KPOINTS created by Atomic Simulation Env
   0.00000000  0.00000000  0.00000000       0.004
   0.06666667 -0.00000000  0.00000000       0.027
   0.13333333  0.00000000  0.00000000       0.027
   0.20000000  0.00000000  0.00000000       0.027
   0.26666667 -0.00000000  0.00000000       0.027
   0.33333333  0.00000000  0.00000000       0.027
   0.40000000  0.00000000  0.00000000       0.027
   0.46666667 -0.00000000  0.00000000       0.027
   0.06666667  0.06666667  0.00000000       0.027
   0.13333333  0.06666667  0.00000000       0.053
   0.20000000  0.06666667  0.00000000       0.053
   0.26666667  0.06666667  0.00000000       0.053
   0.33333333  0.06666667  0.00000000       0.053
   0.40000000  0.06666667  0.00000000       0.053
   0.46666667  0.06666667  0.00000000       0.027
   0.13333333  0.13333333  0.00000000       0.027
   0.20000000  0.13333333  0.00000000       0.053
   0.26666667  0.13333333  0.00000000       0.053
   0.33333333  0.13333333  0.00000000       0.053
   0.40000000  0.13333333  0.00000000       0.053
   0.20000000  0.20000000  0.00000000       0.027
   0.26666667  0.20000000  0.00000000       0.053
   0.33333333  0.20000000  0.00000000       0.053
   0.40000000  0.20000000  0.00000000       0.027
   0.26666667  0.26666667  0.00000000       0.027
   0.33333333  0.26666667  0.00000000       0.053
   0.33333333  0.33333333  0.00000000       0.009
 
 position of ions in fractional coordinates (direct lattice) 
   0.00000000  0.00000000  0.50000000
   0.66666667  0.33333333  0.50000000
 
 position of ions in cartesian coordinates  (Angst):
   0.00000000  0.00000000 10.00000000
   1.22363025  0.70646325 10.00000000
 


--------------------------------------------------------------------------------------------------------


 k-point  1 :   0.0000 0.0000 0.0000  plane waves:    2829
 k-point  2 :   0.0667-0.0000 0.0000  plane waves:    2816
 k-point  3 :   0.1333 0.0000 0.0000  plane waves:    2820
 k-point  4 :   0.2000 0.0000 0.0000  plane waves:    2840
 k-point  5 :   0.2667-0.0000 0.0000  plane waves:    2838
 k-point  6 :   0.3333 0.0000 0.0000  plane waves:    2798
 k-point  7 :   0.4000 0.0000 0.0000  plane waves:    2772
 k-point  8 :   0.4667-0.0000 0.0000  plane waves:    2768
 k-point  9 :   0.0667 0.0667 0.0000  plane waves:    2833
 k-point 10 :   0.1333 0.0667 0.0000  plane waves:    2831
 k-point 11 :   0.2000 0.0667 0.0000  plane waves:    2832
 k-point 12 :   0.2667 0.0667 0.0000  plane waves:    2824
 k-point 13 :   0.3333 0.0667 0.0000  plane waves:    2790
 k-point 14 :   0.4000 0.0667 0.0000  plane waves:    2770
 k-point 15 :   0.4667 0.0667 0.0000  plane waves:    2772
 k-point 16 :   0.1333 0.1333 0.0000  plane waves:    2829
 k-point 17 :   0.2000 0.1333 0.0000  plane waves:    2809
 k-point 18 :   0.2667 0.1333 0.0000  plane waves:    2782
 k-point 19 :   0.3333 0.1333 0.0000  plane waves:    2767
 k-point 20 :   0.4000 0.1333 0.0000  plane waves:    2771
 k-point 21 :   0.2000 0.2000 0.0000  plane waves:    2795
 k-point 22 :   0.2667 0.2000 0.0000  plane waves:    2765
 k-point 23 :   0.3333 0.2000 0.0000  plane waves:    2766
 k-point 24 :   0.4000 0.2000 0.0000  plane waves:    2768
 k-point 25 :   0.2667 0.2667 0.0000  plane waves:    2751
 k-point 26 :   0.3333 0.2667 0.0000  plane waves:    2766
 k-point 27 :   0.3333 0.3333 0.0000  plane waves:    2766

 maximum and minimum number of plane-waves per node :      2840     2751

 maximum number of plane-waves:      2840
 maximum index in each direction: 
   IXMAX=    4   IYMAX=    4   IZMAX=   37
   IXMIN=   -5   IYMIN=   -4   IZMIN=  -37


 serial   3D FFT for wavefunctions
 parallel 3D FFT for charge:
    minimum data exchange during FFTs selected (reduces bandwidth)


 total amount of memory used by VASP MPI-rank0    40137. kBytes
=======================================================================

   base      :      30000. kBytes
   nonl-proj :       4998. kBytes
   fftplans  :        908. kBytes
   grid      :       2990. kBytes
   one-center:          6. kBytes
   wavefun   :       1235. kBytes
 
     INWAV:  cpu time    0.0713: real time    0.0753
 initial charge density was supplied:
 number of electron       7.9999997 magnetization 
 keeping initial charge density in first step


--------------------------------------------------------------------------------------------------------


 Maximum index for augmentation-charges          345 (set IRDMAX)


--------------------------------------------------------------------------------------------------------


 First call to EWALD:  gamma=   0.377
 Maximum number of real-space cells 5x 5x 1
 Maximum number of reciprocal cells 2x 2x10

    FEWALD:  cpu time    0.0013: real time    0.0013


--------------------------------------- Iteration      1(   1)  ---------------------------------------


    POTLOK:  cpu time    0.0052: real time    0.0529
    SETDIJ:  cpu time    0.0010: real time    0.0010
     EDDAV:  cpu time    0.2991: real time    0.2992
       DOS:  cpu time    0.0009: real time    0.0004
    --------------------------------------------
      LOOP:  cpu time    0.3062: real time    0.3535

 eigenvalue-minimisations  :  1080
 total energy-change (2. order) :-0.2017367E+02  (-0.1693569E-10)
 number of electron       7.9999997 magnetization 
 augmentation part        7.9999997 magnetization 

 Free energy of the ion-electron system (eV)
  ---------------------------------------------------
  alpha Z        PSCENC =         2.95206374
  Ewald energy   TEWEN  =      1318.82511921
  -Hartree energ DENC   =     -1565.13330621
  -exchange      EXHF   =         0.00000000
  -V(xc)+E(xc)   XCENC  =        27.81697954
  PAW double counting   =       857.89526321     -859.21459372
  entropy T*S    EENTRO =        -0.00100300
  eigenvalues    EBANDS =       -96.67217143
  atomic energy  EATOM  =       293.35798110
  Solvation  Ediel_sol  =         0.00000000
  ---------------------------------------------------
  free energy    TOTEN  =       -20.17366758 eV

  energy without entropy =      -20.17266457  energy(sigma->0) =      -20.17316607


--------------------------------------------------------------------------------------------------------




--------------------------------------- Iteration      1(   2)  ---------------------------------------


     EDDAV:  cpu time    0.4525: real time    0.5699
       DOS:  cpu time    0.0002: real time    0.0002
    --------------------------------------------
      LOOP:  cpu time    0.4527: real time    0.5701

 eigenvalue-minimisations  :  1580
 total energy-change (2. order) : 0.4042704E-09  (-0.1210777E-11)
 number of electron       7.9999997 magnetization 
 augmentation part        7.9999997 magnetization 

 Free energy of the ion-electron system (eV)
  ---------------------------------------------------
  alpha Z        PSCENC =         2.95206374
  Ewald energy   TEWEN  =      1318.82511921
  -Hartree energ DENC   =     -1565.13330621
  -exchange      EXHF   =         0.00000000
  -V(xc)+E(xc)   XCENC  =        27.81697954
  PAW double counting   =       857.89526321     -859.21459372
  entropy T*S    EENTRO =        -0.00100300
  eigenvalues    EBANDS =       -96.67217143
  atomic energy  EATOM  =       293.35798110
  Solvation  Ediel_sol  =         0.00000000
  ---------------------------------------------------
  free energy    TOTEN  =       -20.17366757 eV

  energy without entropy =      -20.17266457  energy(sigma->0) =      -20.17316607


--------------------------------------------------------------------------------------------------------




 average (electrostatic) potential at core
  the test charge radii are     0.6991
  (the norm of the test charge is              1.0000)
       1 -62.4776       2 -62.4776
 
 
 
 E-fermi :  -2.9365     XC(G=0):  -2.2118     alpha+bet : -1.9653


 k-point     1 :       0.0000    0.0000    0.0000
  band No.  band energies     occupation 
      1     -22.4179      2.00000
      2     -10.7310      2.00000
      3      -5.9661      2.00000
      4      -5.9661      2.00000
      5       0.4030      0.00000
      6       1.3719      0.00000
      7       1.7182      0.00000
      8       2.6157      0.00000
      9       3.0516      0.00000
     10       4.7073      0.00000
     11       5.3312      0.00000
     12       5.4705      0.00000
     13       5.4891      0.00000
     14       7.6412      0.00000
     15       8.4738      0.00000
     16       8.7668      0.00000
     17      10.5133      0.00000
     18      11.3790      0.00000
     19      12.4295      0.00000
     20      15.9132      0.00000

 k-point     2 :       0.0667   -0.0000    0.0000
  band No.  band energies     occupation 
      1     -22.3121      2.00000
      2     -10.6029      2.00000
      3      -6.3829      2.00000
      4      -6.1931      2.00000
      5       0.5465      0.00000
      6       1.5180      0.00000
      7       1.8666      0.00000
      8       2.7625      0.00000
      9       3.1981      0.00000
     10       4.8526      0.00000
     11       5.4365      0.00000
     12       5.5663      0.00000
     13       5.9462      0.00000
     14       7.7839      0.00000
     15       8.3653      0.00000
     16       8.6213      0.00000
     17      10.5864      0.00000
     18      11.5203      0.00000
     19      12.5743      0.00000
     20      16.0724      0.00000

 k-point     3 :       0.1333    0.0000    0.0000
  band No.  band energies     occupation 
      1     -21.9955      2.00000
      2     -10.2208      2.00000
      3      -7.4956      2.00000
      4      -6.7676      2.00000
      5       0.9773      0.00000
      6       1.9558      0.00000
      7       2.3118      0.00000
      8       3.2024      0.00000
      9       3.6377      0.00000
     10       5.2871      0.00000
     11       5.5420      0.00000
     12       5.9469      0.00000
     13       7.3319      0.00000
     14       7.4940      0.00000
     15       8.2128      0.00000
     16       9.0625      0.00000
     17      11.2001      0.00000
     18      11.9637      0.00000
     19      13.0249      0.00000
     20      16.9460      0.00000

 k-point     4 :       0.2000    0.0000    0.0000
  band No.  band energies     occupation 
      1     -21.4703      2.00000
      2      -9.5916      2.00000
      3      -9.0305      2.00000
      4      -7.4850      2.00000
      5       1.6948      0.00000
      6       2.6821      0.00000
      7       3.0537      0.00000
      8       3.9322      0.00000
      9       4.3684      0.00000
     10       5.4684      0.00000
     11       5.7357      0.00000
     12       6.0409      0.00000
     13       6.6630      0.00000
     14       8.9200      0.00000
     15       9.2312      0.00000
     16       9.7909      0.00000
     17      12.3161      0.00000
     18      12.5934      0.00000
     19      13.7712      0.00000
     20      16.8565      0.00000

 k-point     5 :       0.2667   -0.0000    0.0000
  band No.  band energies     occupation 
      1     -20.7405      2.00000
      2     -10.7563      2.00000
      3      -8.7303      2.00000
      4      -8.1823      2.00000
      5       2.6965      0.00000
      6       3.6102      0.00000
      7       4.0279      0.00000
      8       4.0919      0.00000
      9       4.9784      0.00000
     10       5.2119      0.00000
     11       5.4593      0.00000
     12       7.0280      0.00000
     13       7.6795      0.00000
     14       9.8985      0.00000
     15      10.8024      0.00000
     16      11.5475      0.00000
     17      13.4585      0.00000
     18      13.9891      0.00000
     19      14.8018      0.00000
     20      18.1527      0.00000

 k-point     6 :       0.3333    0.0000    0.0000
  band No.  band energies     occupation 
      1     -19.8130      2.00000
      2     -12.5212      2.00000
      3      -8.7619      2.00000
      4      -7.6696      2.00000
      5       2.0234      0.00000
      6       3.9721      0.00000
      7       5.0290      0.00000
      8       5.0409      0.00000
      9       5.4338      0.00000
     10       6.2824      0.00000
     11       6.7336      0.00000
     12       8.3134      0.00000
     13       8.9815      0.00000
     14      11.1089      0.00000
     15      12.0913      0.00000
     16      13.2551      0.00000
     17      13.8236      0.00000
     18      14.1211      0.00000
     19      15.8031      0.00000
     20      16.0504      0.00000

 k-point     7 :       0.4000    0.0000    0.0000
  band No.  band energies     occupation 
      1     -18.7010      2.00000
      2     -14.2284      2.00000
      3      -9.1706      2.00000
      4      -6.4958      2.00000
      5       0.2324      0.00000
      6       4.8251      0.00000
      7       5.5774      0.00000
      8       6.6030      0.00000
      9       7.0619      0.00000
     10       7.8769      0.00000
     11       8.3416      0.00000
     12       9.8492      0.00000
     13      10.5690      0.00000
     14      11.6200      0.00000
     15      12.1831      0.00000
     16      13.0703      0.00000
     17      13.6523      0.00000
     18      13.8173      0.00000
     19      14.3478      0.00000
     20      15.2648      0.00000

 k-point     8 :       0.4667   -0.0000    0.0000
  band No.  band energies     occupation 
      1     -17.4603      2.00000
      2     -15.7766      2.00000
      3      -9.3808      2.00000
      4      -5.5072      2.00000
      5      -1.0851      0.00000
      6       4.7468      0.00000
      7       7.3796      0.00000
      8       8.4245      0.00000
      9       8.9888      0.00000
     10       9.4203      0.00000
     11       9.7185      0.00000
     12      10.2363      0.00000
     13      10.4743      0.00000
     14      11.2112      0.00000
     15      11.5892      0.00000
     16      11.9909      0.00000
     17      12.4017      0.00000
     18      12.4315      0.00000
     19      13.6990      0.00000
     20      14.5077      0.00000

 k-point     9 :       0.0667    0.0667    0.0000
  band No.  band energies     occupation 
      1     -22.1009      2.00000
      2     -10.3478      2.00000
      3      -7.0947      2.00000
      4      -6.6473      2.00000
      5       0.8338      0.00000
      6       1.8100      0.00000
      7       2.1634      0.00000
      8       3.0559      0.00000
      9       3.4914      0.00000
     10       5.1426      0.00000
     11       5.6308      0.00000
     12       5.8371      0.00000
     13       6.6499      0.00000
     14       7.6195      0.00000
     15       8.0683      0.00000
     16       8.9142      0.00000
     17      10.9315      0.00000
     18      11.7885      0.00000
     19      12.8663      0.00000
     20      16.2253      0.00000

 k-point    10 :       0.1333    0.0667    0.0000
  band No.  band energies     occupation 
      1     -21.6800      2.00000
      2      -9.8419      2.00000
      3      -8.3280      2.00000
      4      -7.3853      2.00000
      5       1.4084      0.00000
      6       2.3927      0.00000
      7       2.7570      0.00000
      8       3.6416      0.00000
      9       4.0778      0.00000
     10       5.7190      0.00000
     11       5.8339      0.00000
     12       6.3852      0.00000
     13       6.4148      0.00000
     14       7.9518      0.00000
     15       8.6346      0.00000
     16       9.4976      0.00000
     17      11.8787      0.00000
     18      12.3373      0.00000
     19      13.4417      0.00000
     20      17.0918      0.00000

 k-point    11 :       0.2000    0.0667    0.0000
  band No.  band energies     occupation 
      1     -21.0526      2.00000
      2      -9.9007      2.00000
      3      -9.0955      2.00000
      4      -8.1512      2.00000
      5       2.2689      0.00000
      6       3.2574      0.00000
      7       3.6474      0.00000
      8       4.4910      0.00000
      9       4.7703      0.00000
     10       4.9533      0.00000
     11       5.7949      0.00000
     12       6.5903      0.00000
     13       7.2437      0.00000
     14       9.4713      0.00000
     15       9.5691      0.00000
     16      10.3671      0.00000
     17      13.0075      0.00000
     18      13.0663      0.00000
     19      14.3012      0.00000
     20      16.4695      0.00000

 k-point    12 :       0.2667    0.0667    0.0000
  band No.  band energies     occupation 
      1     -20.2239      2.00000
      2     -11.6167      2.00000
      3      -8.8189      2.00000
      4      -8.1303      2.00000
      5       2.8863      0.00000
      6       3.4113      0.00000
      7       4.4476      0.00000
      8       4.8333      0.00000
      9       5.5842      0.00000
     10       5.6944      0.00000
     11       6.1580      0.00000
     12       7.7333      0.00000
     13       8.4017      0.00000
     14      10.5515      0.00000
     15      11.3785      0.00000
     16      11.5482      0.00000
     17      13.7528      0.00000
     18      14.1985      0.00000
     19      15.4239      0.00000
     20      15.6435      0.00000

 k-point    13 :       0.3333    0.0667    0.0000
  band No.  band energies     occupation 
      1     -19.2035      2.00000
      2     -13.3389      2.00000
      3      -9.3265      2.00000
      4      -6.9968      2.00000
      5       1.0591      0.00000
      6       4.8141      0.00000
      7       5.4172      0.00000
      8       5.8756      0.00000
      9       6.3211      0.00000
     10       7.1442      0.00000
     11       7.6108      0.00000
     12       9.1341      0.00000
     13       9.8497      0.00000
     14      11.7297      0.00000
     15      12.3551      0.00000
     16      12.9971      0.00000
     17      13.4572      0.00000
     18      14.8386      0.00000
     19      15.3386      0.00000
     20      15.7994      0.00000

 k-point    14 :       0.4000    0.0667    0.0000
  band No.  band energies     occupation 
      1     -18.0145      2.00000
      2     -14.9728      2.00000
      3      -9.6415      2.00000
      4      -5.8480      2.00000
      5      -0.5486      0.00000
      6       5.2391      0.00000
      7       6.5465      0.00000
      8       7.5645      0.00000
      9       8.0995      0.00000
     10       8.8597      0.00000
     11       9.3617      0.00000
     12      10.5602      0.00000
     13      10.6396      0.00000
     14      11.5734      0.00000
     15      11.6119      0.00000
     16      12.5662      0.00000
     17      12.9581      0.00000
     18      13.6404      0.00000
     19      13.8399      0.00000
     20      14.6123      0.00000

 k-point    15 :       0.4667    0.0667    0.0000
  band No.  band energies     occupation 
      1     -16.9783      2.00000
      2     -16.1610      2.00000
      3      -9.7482      2.00000
      4      -5.2372      2.00000
      5      -1.3189      0.00000
      6       5.1958      0.00000
      7       8.4205      0.00000
      8       8.5204      0.00000
      9       9.2133      0.00000
     10       9.6924      0.00000
     11      10.1706      0.00000
     12      10.1758      0.00000
     13      10.7215      0.00000
     14      11.0048      0.00000
     15      11.3800      0.00000
     16      11.3985      0.00000
     17      12.3025      0.00000
     18      13.0919      0.00000
     19      13.5114      0.00000
     20      13.5538      0.00000

 k-point    16 :       0.1333    0.1333    0.0000
  band No.  band energies     occupation 
      1     -21.1569      2.00000
      2      -9.4075      2.00000
      3      -9.2181      2.00000
      4      -8.3649      2.00000
      5       2.1266      0.00000
      6       3.1181      0.00000
      7       3.4992      0.00000
      8       4.3719      0.00000
      9       4.8121      0.00000
     10       5.0398      0.00000
     11       6.4381      0.00000
     12       6.4844      0.00000
     13       7.1200      0.00000
     14       8.9228      0.00000
     15       9.3254      0.00000
     16      10.2259      0.00000
     17      12.9524      0.00000
     18      14.1534      0.00000
     19      16.3248      0.00000
     20      17.9760      0.00000

 k-point    17 :       0.2000    0.1333    0.0000
  band No.  band energies     occupation 
      1     -20.4306      2.00000
      2     -10.7939      2.00000
      3      -9.2786      2.00000
      4      -8.3639      2.00000
      5       3.1292      0.00000
      6       3.4550      0.00000
      7       4.1348      0.00000
      8       4.5380      0.00000
      9       5.3909      0.00000
     10       5.8364      0.00000
     11       6.8011      0.00000
     12       7.4304      0.00000
     13       8.1218      0.00000
     14       9.7605      0.00000
     15      10.2460      0.00000
     16      11.2510      0.00000
     17      13.4868      0.00000
     18      15.2294      0.00000
     19      15.5749      0.00000
     20      18.9992      0.00000

 k-point    18 :       0.2667    0.1333    0.0000
  band No.  band energies     occupation 
      1     -19.5088      2.00000
      2     -12.3899      2.00000
      3      -9.9515      2.00000
      4      -7.3105      2.00000
      5       1.7526      0.00000
      6       4.4105      0.00000
      7       5.4160      0.00000
      8       5.8725      0.00000
      9       6.6898      0.00000
     10       6.6932      0.00000
     11       7.1842      0.00000
     12       8.6688      0.00000
     13       9.4204      0.00000
     14      11.2181      0.00000
     15      11.3445      0.00000
     16      12.5769      0.00000
     17      13.2355      0.00000
     18      16.1724      0.00000
     19      16.4784      0.00000
     20      17.2954      0.00000

 k-point    19 :       0.3333    0.1333    0.0000
  band No.  band energies     occupation 
      1     -18.4062      2.00000
      2     -14.0137      2.00000
      3     -10.3950      2.00000
      4      -6.1373      2.00000
      5       0.0862      0.00000
      6       5.9503      0.00000
      7       6.5659      0.00000
      8       6.9395      0.00000
      9       7.5069      0.00000
     10       8.2425      0.00000
     11       8.7776      0.00000
     12      10.0001      0.00000
     13      10.9901      0.00000
     14      11.5274      0.00000
     15      11.5850      0.00000
     16      13.4779      0.00000
     17      14.0551      0.00000
     18      14.2138      0.00000
     19      14.4269      0.00000
     20      15.1008      0.00000

 k-point    20 :       0.4000    0.1333    0.0000
  band No.  band energies     occupation 
      1     -17.1826      2.00000
      2     -15.5157      2.00000
      3     -10.6168      2.00000
      4      -5.1274      2.00000
      5      -1.1895      0.00000
      6       6.4453      0.00000
      7       7.7759      0.00000
      8       8.5184      0.00000
      9       9.4314      0.00000
     10       9.7362      0.00000
     11       9.8272      0.00000
     12      10.6157      0.00000
     13      10.6618      0.00000
     14      11.6518      0.00000
     15      11.8348      0.00000
     16      12.4933      0.00000
     17      12.7511      0.00000
     18      12.8382      0.00000
     19      13.4894      0.00000
     20      14.6978      0.00000

 k-point    21 :       0.2000    0.2000    0.0000
  band No.  band energies     occupation 
      1     -19.6112      2.00000
      2     -11.7816      2.00000
      3     -10.4769      2.00000
      4      -7.4171      2.00000
      5       2.0395      0.00000
      6       4.2703      0.00000
      7       5.2538      0.00000
      8       5.7251      0.00000
      9       6.5336      0.00000
     10       7.0097      0.00000
     11       7.9868      0.00000
     12       8.5037      0.00000
     13       9.2851      0.00000
     14      10.3398      0.00000
     15      11.0148      0.00000
     16      12.4236      0.00000
     17      13.0196      0.00000
     18      16.1352      0.00000
     19      16.4025      0.00000
     20      18.1378      0.00000

 k-point    22 :       0.2667    0.2000    0.0000
  band No.  band energies     occupation 
      1     -18.6059      2.00000
      2     -13.0708      2.00000
      3     -11.2957      2.00000
      4      -6.2983      2.00000
      5       0.5378      0.00000
      6       5.6823      0.00000
      7       6.5939      0.00000
      8       7.2078      0.00000
      9       7.9126      0.00000
     10       8.2593      0.00000
     11       8.5153      0.00000
     12       9.5925      0.00000
     13      10.5065      0.00000
     14      10.7773      0.00000
     15      11.2319      0.00000
     16      13.5744      0.00000
     17      13.8781      0.00000
     18      15.5054      0.00000
     19      16.7954      0.00000
     20      17.2725      0.00000

 k-point    23 :       0.3333    0.2000    0.0000
  band No.  band energies     occupation 
      1     -17.4426      2.00000
      2     -14.5238      2.00000
      3     -11.7112      2.00000
      4      -5.1321      2.00000
      5      -0.8824      0.00000
      6       7.3382      0.00000
      7       7.8567      0.00000
      8       8.1961      0.00000
      9       8.9875      0.00000
     10       9.3309      0.00000
     11      10.2193      0.00000
     12      10.3730      0.00000
     13      10.8000      0.00000
     14      12.1364      0.00000
     15      12.3931      0.00000
     16      13.3473      0.00000
     17      13.4097      0.00000
     18      13.9028      0.00000
     19      14.4551      0.00000
     20      15.1563      0.00000

 k-point    24 :       0.4000    0.2000    0.0000
  band No.  band energies     occupation 
      1     -16.4465      2.00000
      2     -15.6327      2.00000
      3     -11.8402      2.00000
      4      -4.4620      2.00000
      5      -1.6422      0.00000
      6       8.1283      0.00000
      7       8.2810      0.00000
      8       9.1037      0.00000
      9       9.2678      0.00000
     10      10.5704      0.00000
     11      11.0477      0.00000
     12      11.0586      0.00000
     13      11.2427      0.00000
     14      11.8904      0.00000
     15      12.1576      0.00000
     16      12.2271      0.00000
     17      12.5014      0.00000
     18      13.9675      0.00000
     19      14.0908      0.00000
     20      14.3036      0.00000

 k-point    25 :       0.2667    0.2667    0.0000
  band No.  band energies     occupation 
      1     -17.5358      2.00000
      2     -13.8179      2.00000
      3     -12.4623      2.00000
      4      -5.1482      2.00000
      5      -0.7230      0.00000
      6       7.2025      0.00000
      7       7.5816      0.00000
      8       8.8367      0.00000
      9       9.1395      0.00000
     10       9.7716      0.00000
     11      10.1147      0.00000
     12      10.2104      0.00000
     13      10.2635      0.00000
     14      12.0758      0.00000
     15      12.2590      0.00000
     16      14.6367      0.00000
     17      14.7093      0.00000
     18      14.7773      0.00000
     19      15.0728      0.00000
     20      15.2842      0.00000

 k-point    26 :       0.3333    0.2667    0.0000
  band No.  band energies     occupation 
      1     -16.3669      2.00000
      2     -14.8939      2.00000
      3     -13.0024      2.00000
      4      -4.0409      2.00000
      5      -1.8791      0.00000
      6       7.7001      0.00000
      7       8.8873      0.00000
      8       9.8245      0.00000
      9      10.3554      0.00000
     10      10.6349      0.00000
     11      10.7603      0.00000
     12      11.7367      0.00000
     13      11.9082      0.00000
     14      12.7925      0.00000
     15      12.8924      0.00000
     16      13.4882      0.00000
     17      13.7271      0.00000
     18      13.9760      0.00000
     19      14.1124      0.00000
     20      14.8844      0.00000

 k-point    27 :       0.3333    0.3333    0.0000
  band No.  band energies     occupation 
      1     -15.3878      2.00000
      2     -15.3878      2.00000
      3     -13.6932      2.00000
      4      -2.9365      1.00003
      5      -2.9365      0.99997
      6       7.4641      0.00000
      7      10.0792      0.00000
      8      10.0792      0.00000
      9      10.5112      0.00000
     10      12.3198      0.00000
     11      12.3198      0.00000
     12      12.7071      0.00000
     13      12.7125      0.00000
     14      12.8144      0.00000
     15      13.0021      0.00000
     16      13.2348      0.00000
     17      13.2702      0.00000
     18      13.6637      0.00000
     19      13.6882      0.00000
     20      13.7616      0.00000


--------------------------------------------------------------------------------------------------------


 soft charge-density along one line, spin component           1
         0         1         2         3         4         5         6         7         8         9
 total charge-density along one line
 
 pseudopotential strength for first ion, spin component:           1
 10.730  14.395   0.000  -0.000  -0.000  -0.000   0.000   0.000
 14.395  19.311   0.000  -0.000  -0.000  -0.000   0.000   0.000
  0.000   0.000  -4.273  -0.000  -0.000   8.198   0.000   0.000
 -0.000  -0.000  -0.000  -4.262  -0.000   0.000   8.186   0.000
 -0.000  -0.000  -0.000  -0.000  -4.273   0.000   0.000   8.198
 -0.000  -0.000   8.198   0.000   0.000 -18.671  -0.000  -0.000
  0.000   0.000   0.000   8.186   0.000  -0.000 -18.661  -0.000
  0.000   0.000   0.000   0.000   8.198  -0.000  -0.000 -18.670
 total augmentation occupancy for first ion, spin component:           1
  2.000   0.000   0.000   0.000   0.000   0.000   0.000   0.000
  0.000   0.000   0.000   0.000   0.000   0.000   0.000   0.000
  0.000   0.000   0.667   0.000   0.000   0.000   0.000   0.000
  0.000   0.000   0.000   0.667   0.000   0.000   0.000   0.000
  0.000   0.000   0.000   0.000   0.667   0.000   0.000   0.000
  0.000   0.000   0.000   0.000   0.000   0.000   0.000   0.000
  0.000   0.000   0.000   0.000   0.000   0.000   0.000   0.000
  0.000   0.000   0.000   0.000   0.000   0.000   0.000   0.000


------------------------ aborting loop because EDIFF is reached ----------------------------------------


    CHARGE:  cpu time    0.0264: real time    0.0264
    FORLOC:  cpu time    0.0005: real time    0.0005
    FORNL :  cpu time    0.0099: real time    0.0099
    STRESS:  cpu time    0.1635: real time    0.1636
    FORCOR:  cpu time    0.0029: real time    0.0029
    FORHAR:  cpu time    0.0021: real time    0.0021
    OFIELD:  cpu time    0.0000: real time    0.0000

  FORCE on cell =-STRESS in cart. coord.  units (eV):
  Direction    XX          YY          ZZ          XY          YZ          ZX
  --------------------------------------------------------------------------------------
  Alpha Z     2.95206     2.95206     2.95206
  Ewald    1589.75669  1589.75669 -1860.68831     0.00000    -0.00000    -0.00000
  Hartree  1554.08462  1554.08462 -1543.03594    -0.00000    -0.00000    -0.00000
  E(xc)     -29.64609   -29.64609   -29.56384    -0.00000     0.00000     0.00000
  Local   -3232.83465 -3232.83467  3297.60391    -0.00001     0.00000     0.00000
  n-local    -4.16458    -4.54933    -3.72242    -0.58729    -0.00000    -0.00000
  augment    -0.28609    -0.28609    -0.27877     0.00001    -0.00000     0.00000
  Kinetic   118.38660   122.25658   136.71915     3.56122    -0.00000     0.00000
  Fock        0.00000     0.00000     0.00000     0.00000     0.00000     0.00000
  -------------------------------------------------------------------------------------
  Total      -0.00884    -0.00884    -0.01417     0.00000    -0.00000     0.00000
  in kB      -0.13648    -0.13648    -0.21883     0.00000    -0.00000     0.00000
  external pressure =       -0.16 kB  Pullay stress =        0.00 kB


 VOLUME and BASIS-vectors are now :
 -----------------------------------------------------------------------------
  energy-cutoff  :      520.00
  volume of cell :      103.73
      direct lattice vectors                 reciprocal lattice vectors
     2.447260498  0.000000000  0.000000000     0.408620170  0.235916965  0.000000000
    -1.223630249  2.119389761  0.000000000     0.000000000  0.471833930  0.000000000
     0.000000000  0.000000000 20.000000000     0.000000000  0.000000000  0.050000000

  length of vectors
     2.447260498  2.447260498 20.000000000     0.471833930  0.471833930  0.050000000


 FORCES acting on ions
    electron-ion (+dipol)            ewald-force                    non-local-force                 convergence-correction
 -----------------------------------------------------------------------------------------------
   0.829E-06 -.479E-06 0.343E-12   -.636E-11 0.362E-11 0.529E-22   0.139E-15 0.555E-16 0.000E+00   0.328E-04 -.190E-04 0.423E-11
   -.829E-06 0.479E-06 -.746E-11   0.636E-11 -.361E-11 -.529E-22   -.833E-16 -.555E-16 0.000E+00   -.616E-04 0.356E-04 0.434E-11
 -----------------------------------------------------------------------------------------------
   0.151E-11 -.918E-12 -.712E-11   0.326E-14 0.103E-13 0.000E+00   0.555E-16 0.000E+00 0.000E+00   -.288E-04 0.166E-04 0.857E-11
 
 
 POSITION                                       TOTAL-FORCE (eV/Angst)
 -----------------------------------------------------------------------------------
      0.00000      0.00000     10.00000         0.000000      0.000000      0.000000
      1.22363      0.70646     10.00000        -0.000000      0.000000      0.000000
 -----------------------------------------------------------------------------------
    total drift:                               -0.000029      0.000017      0.000000


--------------------------------------------------------------------------------------------------------



  FREE ENERGIE OF THE ION-ELECTRON SYSTEM (eV)
  ---------------------------------------------------
  free  energy   TOTEN  =       -20.17366757 eV

  energy  without entropy=      -20.17266457  energy(sigma->0) =      -20.17316607
 


--------------------------------------------------------------------------------------------------------


    POTLOK:  cpu time    0.0044: real time    0.0044


--------------------------------------------------------------------------------------------------------


     LOOP+:  cpu time   11.5070: real time   12.1572
    4ORBIT:  cpu time    0.0000: real time    0.0000

 total amount of memory used by VASP MPI-rank0    40137. kBytes
=======================================================================

   base      :      30000. kBytes
   nonl-proj :       4998. kBytes
   fftplans  :        908. kBytes
   grid      :       2990. kBytes
   one-center:          6. kBytes
   wavefun   :       1235. kBytes
 
  
  
 General timing and accounting informations for this job:
 ========================================================
  
                  Total CPU time used (sec):       12.544
                            User time (sec):       10.980
                          System time (sec):        1.563
                         Elapsed time (sec):       13.620
  
                   Maximum memory used (kb):      153864.
                   Average memory used (kb):           0.
  
                          Minor page faults:        23896
                          Major page faults:            0
                 Voluntary context switches:         2209
