 written on  8Nov2021 at 09:53:12 
           5
         225
    1    1    1    1    1    1    1    1    1    1    1    1    1    1    1
    1    1    1    1    1    1    1    1    1    1    1    1    1    1    1
    1    1    1    1    1    1    1    1    1    1    1    1    1    1    1
    1    1    1    1    1    1    1    1    1    1    1    1    1    1    1
    1    1    1    1    1    1    1    1    1    1    1    1    1    1    1
    1    1    1    1    1    1    1    1    1    1    1    1    1    1    1
    1    1    1    1    1    1    1    1    1    1    1    1    1    1    1
    1    1    1    1    1    1    1    1    1    1    1    1    1    1    1
    1    1    1    1    1    1    1    1    1    1    1    1    1    1    1
    1    1    1    1    1    1    1    1    1    1    1    1    1    1    1
    1    1    1    1    1    1    1    1    1    1    1    1    1    1    1
    1    1    1    1    1    1    1    1    1    1    1    1    1    1    1
    1    1    1    1    1    1    1    1    1    1    1    1    1    1    1
    1    1    1    1    1    1    1    1    1    1    1    1    1    1    1
    1    1    1    1    1    1    1    1    1    1    1    1    1    1    1
   -9   -6    0    1    1   -0.000439   -0.000005
   -9   -6    0    2    1    0.000875   -0.000000
   -9   -6    0    3    1    0.000004    0.000002
   -9   -6    0    4    1   -0.000012    0.000001
   -9   -6    0    5    1    0.000003   -0.000003
   -9   -6    0    1    2    0.000090    0.000000
   -9   -6    0    2    2   -0.000439    0.000005
   -9   -6    0    3    2   -0.000004   -0.000005
   -9   -6    0    4    2    0.000011   -0.000002
   -9   -6    0    5    2   -0.000005    0.000004
   -9   -6    0    1    3    0.000009    0.000002
   -9   -6    0    2    3   -0.000005    0.000000
   -9   -6    0    3    3   -0.000040   -0.000000
   -9   -6    0    4    3    0.000013   -0.000000
   -9   -6    0    5    3    0.000040    0.000001
   -9   -6    0    1    4   -0.000011   -0.000004
   -9   -6    0    2    4    0.000009   -0.000001
   -9   -6    0    3    4    0.000011   -0.000000
   -9   -6    0    4    4   -0.000038   -0.000000
   -9   -6    0    5    4    0.000040   -0.000000
   -9   -6    0    1    5    0.000002   -0.000004
   -9   -6    0    2    5   -0.000002    0.000002
   -9   -6    0    3    5    0.000026    0.000000
   -9   -6    0    4    5    0.000026    0.000000
   -9   -6    0    5    5   -0.000077    0.000000
   -9   -5    0    1    1   -0.001568   -0.000007
   -9   -5    0    2    1    0.002037   -0.000001
   -9   -5    0    3    1    0.000007    0.000001
   -9   -5    0    4    1   -0.000008   -0.000001
   -9   -5    0    5    1   -0.000002    0.000003
   -9   -5    0    1    2    0.001063    0.000000
   -9   -5    0    2    2   -0.001568    0.000007
   -9   -5    0    3    2   -0.000008   -0.000005
   -9   -5    0    4    2    0.000010   -0.000000
   -9   -5    0    5    2   -0.000001   -0.000001
   -9   -5    0    1    3    0.000014    0.000007
   -9   -5    0    2    3   -0.000010   -0.000004
   -9   -5    0    3    3    0.000016   -0.000000
   -9   -5    0    4    3   -0.000066   -0.000000
   -9   -5    0    5    3    0.000047    0.000001
   -9   -5    0    1    4   -0.000014   -0.000006
   -9   -5    0    2    4    0.000010    0.000003
   -9   -5    0    3    4    0.000032    0.000000
   -9   -5    0    4    4    0.000030    0.000000
   -9   -5    0    5    4   -0.000045   -0.000001
   -9   -5    0    1    5   -0.000000   -0.000005
   -9   -5    0    2    5    0.000000    0.000004
   -9   -5    0    3    5   -0.000048    0.000000
   -9   -5    0    4    5    0.000040    0.000000
   -9   -5    0    5    5   -0.000015    0.000000
   -9   -4    0    1    1   -0.001568   -0.000007
   -9   -4    0    2    1    0.002038   -0.000000
   -9   -4    0    3    1    0.000008   -0.000000
   -9   -4    0    4    1   -0.000001   -0.000004
   -9   -4    0    5    1   -0.000005    0.000010
   -9   -4    0    1    2    0.001063    0.000000
   -9   -4    0    2    2   -0.001568    0.000007
   -9   -4    0    3    2   -0.000009   -0.000003
   -9   -4    0    4    2    0.000004    0.000004
   -9   -4    0    5    2    0.000003   -0.000006
   -9   -4    0    1    3    0.000015    0.000008
   -9   -4    0    2    3   -0.000011   -0.000005
   -9   -4    0    3    3    0.000017    0.000000
   -9   -4    0    4    3    0.000047   -0.000000
   -9   -4    0    5    3   -0.000065    0.000000
   -9   -4    0    1    4   -0.000010   -0.000005
   -9   -4    0    2    4    0.000005    0.000002
   -9   -4    0    3    4   -0.000049    0.000001
   -9   -4    0    4    4   -0.000014   -0.000000
   -9   -4    0    5    4    0.000040   -0.000001
   -9   -4    0    1    5   -0.000002   -0.000005
   -9   -4    0    2    5    0.000001    0.000005
   -9   -4    0    3    5    0.000034   -0.000000
   -9   -4    0    4    5   -0.000045    0.000001
   -9   -4    0    5    5    0.000029   -0.000000
   -8   -7    0    1    1    0.001723   -0.000000
   -8   -7    0    2    1   -0.001507   -0.000000
   -8   -7    0    3    1   -0.000003    0.000003
   -8   -7    0    4    1   -0.000005    0.000003
   -8   -7    0    5    1    0.000011   -0.000008
   -8   -7    0    1    2   -0.001936    0.000000
   -8   -7    0    2    2    0.001724    0.000000
   -8   -7    0    3    2    0.000005   -0.000006
   -8   -7    0    4    2    0.000003   -0.000000
   -8   -7    0    5    2   -0.000010    0.000005
   -8   -7    0    1    3   -0.000002   -0.000001
   -8   -7    0    2    3    0.000002    0.000004
   -8   -7    0    3    3    0.000160   -0.000000
   -8   -7    0    4    3   -0.000049    0.000002
   -8   -7    0    5    3   -0.000073   -0.000001
   -8   -7    0    1    4   -0.000000   -0.000001
   -8   -7    0    2    4    0.000002   -0.000002
   -8   -7    0    3    4   -0.000050   -0.000000
   -8   -7    0    4    4    0.000160   -0.000000
   -8   -7    0    5    4   -0.000073   -0.000000
   -8   -7    0    1    5    0.000007   -0.000001
   -8   -7    0    2    5   -0.000007    0.000000
   -8   -7    0    3    5   -0.000061    0.000000
   -8   -7    0    4    5   -0.000061   -0.000001
   -8   -7    0    5    5    0.000070   -0.000000
   -8   -6    0    1    1    0.000799   -0.000002
   -8   -6    0    2    1   -0.000528   -0.000000
   -8   -6    0    3    1    0.000001    0.000007
   -8   -6    0    4    1   -0.000010    0.000003
   -8   -6    0    5    1    0.000008   -0.000007
   -8   -6    0    1    2   -0.001217    0.000000
   -8   -6    0    2    2    0.000799    0.000002
   -8   -6    0    3    2    0.000001   -0.000012
   -8   -6    0    4    2    0.000006   -0.000001
   -8   -6    0    5    2   -0.000008    0.000006
   -8   -6    0    1    3    0.000006    0.000003
   -8   -6    0    2    3   -0.000006   -0.000000
   -8   -6    0    3    3   -0.000060   -0.000000
   -8   -6    0    4    3    0.000053    0.000000
   -8   -6    0    5    3    0.000026   -0.000000
   -8   -6    0    1    4   -0.000004   -0.000007
   -8   -6    0    2    4    0.000007    0.000003
   -8   -6    0    3    4   -0.000045    0.000000
   -8   -6    0    4    4    0.000032    0.000000
   -8   -6    0    5    4   -0.000040   -0.000000
   -8   -6    0    1    5    0.000001   -0.000006
   -8   -6    0    2    5   -0.000003    0.000004
   -8   -6    0    3    5    0.000090   -0.000000
   -8   -6    0    4    5   -0.000073    0.000000
   -8   -6    0    5    5    0.000025    0.000000
   -8   -5    0    1    1   -0.000519   -0.000002
   -8   -5    0    2    1    0.000875   -0.000000
   -8   -5    0    3    1    0.000006    0.000008
   -8   -5    0    4    1   -0.000011    0.000002
   -8   -5    0    5    1    0.000004   -0.000003
   -8   -5    0    1    2   -0.000050    0.000000
   -8   -5    0    2    2   -0.000519    0.000002
   -8   -5    0    3    2   -0.000004   -0.000014
   -8   -5    0    4    2    0.000010   -0.000001
   -8   -5    0    5    2   -0.000004    0.000004
   -8   -5    0    1    3    0.000015    0.000007
   -8   -5    0    2    3   -0.000013   -0.000005
   -8   -5    0    3    3    0.000032    0.000000
   -8   -5    0    4    3    0.000012    0.000000
   -8   -5    0    5    3   -0.000048   -0.000000
   -8   -5    0    1    4   -0.000012   -0.000012
   -8   -5    0    2    4    0.000014    0.000008
   -8   -5    0    3    4   -0.000090   -0.000000
   -8   -5    0    4    4    0.000041    0.000000
   -8   -5    0    5    4    0.000023   -0.000000
   -8   -5    0    1    5   -0.000003   -0.000009
   -8   -5    0    2    5    0.000000    0.000006
   -8   -5    0    3    5    0.000012    0.000000
   -8   -5    0    4    5   -0.000040    0.000000
   -8   -5    0    5    5    0.000051   -0.000000
   -8   -4    0    1    1   -0.000916   -0.000002
   -8   -4    0    2    1    0.001298   -0.000000
   -8   -4    0    3    1    0.000009    0.000006
   -8   -4    0    4    1   -0.000009   -0.000001
   -8   -4    0    5    1   -0.000000    0.000001
   -8   -4    0    1    2    0.000206   -0.000000
   -8   -4    0    2    2   -0.000916    0.000002
   -8   -4    0    3    2   -0.000007   -0.000011
   -8   -4    0    4    2    0.000011    0.000002
   -8   -4    0    5    2   -0.000001    0.000002
   -8   -4    0    1    3    0.000019    0.000012
   -8   -4    0    2    3   -0.000017   -0.000009
   -8   -4    0    3    3   -0.000114   -0.000000
   -8   -4    0    4    3    0.000032   -0.000000
   -8   -4    0    5    3    0.000034    0.000000
   -8   -4    0    1    4   -0.000015   -0.000013
   -8   -4    0    2    4    0.000014    0.000008
   -8   -4    0    3    4    0.000082    0.000000
   -8   -4    0    4    4   -0.000073    0.000000
   -8   -4    0    5    4    0.000022   -0.000002
   -8   -4    0    1    5   -0.000005   -0.000009
   -8   -4    0    2    5    0.000002    0.000006
   -8   -4    0    3    5    0.000084    0.000000
   -8   -4    0    4    5    0.000023    0.000000
   -8   -4    0    5    5   -0.000076    0.000000
   -8   -3    0    1    1   -0.000519   -0.000001
   -8   -3    0    2    1    0.000875   -0.000000
   -8   -3    0    3    1    0.000007    0.000004
   -8   -3    0    4    1   -0.000003   -0.000006
   -8   -3    0    5    1   -0.000002    0.000005
   -8   -3    0    1    2   -0.000049   -0.000000
   -8   -3    0    2    2   -0.000519    0.000001
   -8   -3    0    3    2   -0.000004   -0.000008
   -8   -3    0    4    2    0.000007    0.000005
   -8   -3    0    5    2    0.000001    0.000001
   -8   -3    0    1    3    0.000016    0.000014
   -8   -3    0    2    3   -0.000014   -0.000009
   -8   -3    0    3    3    0.000032    0.000000
   -8   -3    0    4    3   -0.000049   -0.000001
   -8   -3    0    5    3    0.000013    0.000000
   -8   -3    0    1    4   -0.000010   -0.000008
   -8   -3    0    2    4    0.000008    0.000005
   -8   -3    0    3    4    0.000011   -0.000001
   -8   -3    0    4    4    0.000054   -0.000000
   -8   -3    0    5    4   -0.000041   -0.000000
   -8   -3    0    1    5   -0.000007   -0.000007
   -8   -3    0    2    5    0.000004    0.000006
   -8   -3    0    3    5   -0.000087   -0.000000
   -8   -3    0    4    5    0.000022    0.000001
   -8   -3    0    5    5    0.000038    0.000000
   -8   -2    0    1    1    0.000799   -0.000001
   -8   -2    0    2    1   -0.000527   -0.000000
   -8   -2    0    3    1    0.000001    0.000003
   -8   -2    0    4    1    0.000000   -0.000008
   -8   -2    0    5    1   -0.000000    0.000005
   -8   -2    0    1    2   -0.001216   -0.000000
   -8   -2    0    2    2    0.000799    0.000001
   -8   -2    0    3    2    0.000001   -0.000006
   -8   -2    0    4    2    0.000003    0.000006
   -8   -2    0    5    2   -0.000002    0.000000
   -8   -2    0    1    3    0.000006    0.000009
   -8   -2    0    2    3   -0.000004   -0.000005
   -8   -2    0    3    3   -0.000060   -0.000000
   -8   -2    0    4    3    0.000026   -0.000000
   -8   -2    0    5    3    0.000053   -0.000000
   -8   -2    0    1    4   -0.000007   -0.000005
   -8   -2    0    2    4    0.000005    0.000003
   -8   -2    0    3    4    0.000090   -0.000002
   -8   -2    0    4    4    0.000026    0.000000
   -8   -2    0    5    4   -0.000073    0.000001
   -8   -2    0    1    5   -0.000006   -0.000005
   -8   -2    0    2    5    0.000003    0.000003
   -8   -2    0    3    5   -0.000042    0.000001
   -8   -2    0    4    5   -0.000041    0.000000
   -8   -2    0    5    5    0.000030    0.000000
   -7   -7    0    1    1    0.002245   -0.000001
   -7   -7    0    2    1   -0.002235   -0.000000
   -7   -7    0    3    1   -0.000006    0.000005
   -7   -7    0    4    1   -0.000001   -0.000001
   -7   -7    0    5    1    0.000010   -0.000003
   -7   -7    0    1    2   -0.001924    0.000000
   -7   -7    0    2    2    0.002246    0.000001
   -7   -7    0    3    2    0.000008   -0.000008
   -7   -7    0    4    2   -0.000002    0.000006
   -7   -7    0    5    2   -0.000008    0.000002
   -7   -7    0    1    3   -0.000003    0.000002
   -7   -7    0    2    3    0.000004    0.000001
   -7   -7    0    3    3   -0.000005   -0.000000
   -7   -7    0    4    3    0.000122    0.000001
   -7   -7    0    5    3   -0.000061   -0.000000
   -7   -7    0    1    4    0.000000   -0.000003
   -7   -7    0    2    4    0.000000    0.000001
   -7   -7    0    3    4   -0.000093   -0.000001
   -7   -7    0    4    4   -0.000007    0.000000
   -7   -7    0    5    4   -0.000014    0.000000
   -7   -7    0    1    5    0.000010    0.000006
   -7   -7    0    2    5   -0.000009   -0.000003
   -7   -7    0    3    5   -0.000014    0.000001
   -7   -7    0    4    5   -0.000061   -0.000001
   -7   -7    0    5    5    0.000076    0.000000
   -7   -6    0    1    1    0.001583    0.000001
   -7   -6    0    2    1   -0.001506   -0.000000
   -7   -6    0    3    1   -0.000005    0.000012
   -7   -6    0    4    1   -0.000003   -0.000002
   -7   -6    0    5    1    0.000009   -0.000005
   -7   -6    0    1    2   -0.001168    0.000000
   -7   -6    0    2    2    0.001583   -0.000001
   -7   -6    0    3    2    0.000008   -0.000014
   -7   -6    0    4    2   -0.000003    0.000008
   -7   -6    0    5    2   -0.000005    0.000003
   -7   -6    0    1    3    0.000001    0.000007
   -7   -6    0    2    3   -0.000002   -0.000002
   -7   -6    0    3    3   -0.000129    0.000000
   -7   -6    0    4    3   -0.000050    0.000000
   -7   -6    0    5    3    0.000090    0.000000
   -7   -6    0    1    4    0.000004   -0.000007
   -7   -6    0    2    4    0.000000    0.000004
   -7   -6    0    3    4    0.000235    0.000001
   -7   -6    0    4    4   -0.000051   -0.000000
   -7   -6    0    5    4   -0.000083   -0.000001
   -7   -6    0    1    5    0.000001   -0.000003
   -7   -6    0    2    5   -0.000003    0.000004
   -7   -6    0    3    5    0.000060    0.000000
   -7   -6    0    4    5   -0.000014   -0.000000
   -7   -6    0    5    5   -0.000025    0.000000
   -7   -5    0    1    1    0.000691    0.000005
   -7   -5    0    2    1   -0.000212   -0.000000
   -7   -5    0    3    1    0.000000    0.000016
   -7   -5    0    4    1   -0.000006   -0.000000
   -7   -5    0    5    1    0.000006   -0.000005
   -7   -5    0    1    2   -0.000417    0.000000
   -7   -5    0    2    2    0.000691   -0.000005
   -7   -5    0    3    2    0.000004   -0.000018
   -7   -5    0    4    2   -0.000000    0.000006
   -7   -5    0    5    2   -0.000002    0.000004
   -7   -5    0    1    3    0.000011    0.000012
   -7   -5    0    2    3   -0.000011   -0.000006
   -7   -5    0    3    3    0.000048   -0.000000
   -7   -5    0    4    3   -0.000044   -0.000000
   -7   -5    0    5    3    0.000012   -0.000000
   -7   -5    0    1    4   -0.000001   -0.000016
   -7   -5    0    2    4    0.000006    0.000011
   -7   -5    0    3    4   -0.000206    0.000000
   -7   -5    0    4    4    0.000181    0.000000
   -7   -5    0    5    4   -0.000030   -0.000000
   -7   -5    0    1    5   -0.000006   -0.000014
   -7   -5    0    2    5    0.000003    0.000011
   -7   -5    0    3    5    0.000022    0.000000
   -7   -5    0    4    5   -0.000083    0.000001
   -7   -5    0    5    5    0.000072    0.000000
   -7   -4    0    1    1    0.000023    0.000008
   -7   -4    0    2    1    0.000630   -0.000000
   -7   -4    0    3    1    0.000004    0.000015
   -7   -4    0    4    1   -0.000010   -0.000001
   -7   -4    0    5    1    0.000002   -0.000004
   -7   -4    0    1    2    0.000210   -0.000000
   -7   -4    0    2    2    0.000022   -0.000008
   -7   -4    0    3    2    0.000001   -0.000018
   -7   -4    0    4    2    0.000006    0.000003
   -7   -4    0    5    2   -0.000001    0.000006
   -7   -4    0    1    3    0.000017    0.000018
   -7   -4    0    2    3   -0.000018   -0.000012
   -7   -4    0    3    3    0.000014   -0.000000
   -7   -4    0    4    3   -0.000090    0.000000
   -7   -4    0    5    3    0.000084   -0.000000
   -7   -4    0    1    4   -0.000007   -0.000023
   -7   -4    0    2    4    0.000013    0.000016
   -7   -4    0    3    4    0.000020   -0.000000
   -7   -4    0    4    4    0.000128   -0.000000
   -7   -4    0    5    4   -0.000174   -0.000001
   -7   -4    0    1    5   -0.000006   -0.000018
   -7   -4    0    2    5    0.000005    0.000012
   -7   -4    0    3    5    0.000018    0.000000
   -7   -4    0    4    5   -0.000030    0.000000
   -7   -4    0    5    5    0.000046    0.000000
   -7   -3    0    1    1    0.000023    0.000008
   -7   -3    0    2    1    0.000630   -0.000000
   -7   -3    0    3    1    0.000004    0.000011
   -7   -3    0    4    1   -0.000010   -0.000004
   -7   -3    0    5    1   -0.000000   -0.000004
   -7   -3    0    1    2    0.000209   -0.000000
   -7   -3    0    2    2    0.000022   -0.000008
   -7   -3    0    3    2    0.000003   -0.000015
   -7   -3    0    4    2    0.000010    0.000003
   -7   -3    0    5    2    0.000001    0.000009
   -7   -3    0    1    3    0.000015    0.000022
   -7   -3    0    2    3   -0.000018   -0.000017
   -7   -3    0    3    3    0.000013   -0.000000
   -7   -3    0    4    3    0.000081    0.000000
   -7   -3    0    5    3   -0.000087    0.000000
   -7   -3    0    1    4   -0.000006   -0.000018
   -7   -3    0    2    4    0.000013    0.000013
   -7   -3    0    3    4    0.000017   -0.000000
   -7   -3    0    4    4    0.000050    0.000000
   -7   -3    0    5    4   -0.000032   -0.000001
   -7   -3    0    1    5   -0.000007   -0.000016
   -7   -3    0    2    5    0.000007    0.000011
   -7   -3    0    3    5    0.000022   -0.000000
   -7   -3    0    4    5   -0.000174    0.000000
   -7   -3    0    5    5    0.000125   -0.000000
   -7   -2    0    1    1    0.000691    0.000006
   -7   -2    0    2    1   -0.000213   -0.000000
   -7   -2    0    3    1    0.000000    0.000008
   -7   -2    0    4    1   -0.000006   -0.000005
   -7   -2    0    5    1    0.000001   -0.000003
   -7   -2    0    1    2   -0.000419   -0.000000
   -7   -2    0    2    2    0.000691   -0.000006
   -7   -2    0    3    2    0.000006   -0.000012
   -7   -2    0    4    2    0.000009    0.000003
   -7   -2    0    5    2   -0.000001    0.000010
   -7   -2    0    1    3    0.000010    0.000020
   -7   -2    0    2    3   -0.000012   -0.000015
   -7   -2    0    3    3    0.000046   -0.000000
   -7   -2    0    4    3    0.000011    0.000001
   -7   -2    0    5    3   -0.000042   -0.000001
   -7   -2    0    1    4   -0.000002   -0.000008
   -7   -2    0    2    4    0.000007    0.000006
   -7   -2    0    3    4    0.000022   -0.000002
   -7   -2    0    4    4    0.000075    0.000000
   -7   -2    0    5    4   -0.000085    0.000001
   -7   -2    0    1    5   -0.000011   -0.000014
   -7   -2    0    2    5    0.000010    0.000009
   -7   -2    0    3    5   -0.000204   -0.000000
   -7   -2    0    4    5   -0.000031    0.000001
   -7   -2    0    5    5    0.000179    0.000000
   -7   -1    0    1    1    0.001583    0.000003
   -7   -1    0    2    1   -0.001507   -0.000000
   -7   -1    0    3    1   -0.000004    0.000008
   -7   -1    0    4    1   -0.000005   -0.000004
   -7   -1    0    5    1    0.000006   -0.000003
   -7   -1    0    1    2   -0.001168   -0.000000
   -7   -1    0    2    2    0.001583   -0.000003
   -7   -1    0    3    2    0.000008   -0.000010
   -7   -1    0    4    2    0.000008    0.000001
   -7   -1    0    5    2   -0.000007    0.000009
   -7   -1    0    1    3    0.000003    0.000013
   -7   -1    0    2    3   -0.000003   -0.000007
   -7   -1    0    3    3   -0.000131   -0.000000
   -7   -1    0    4    3    0.000090    0.000002
   -7   -1    0    5    3   -0.000049   -0.000001
   -7   -1    0    1    4   -0.000006   -0.000002
   -7   -1    0    2    4    0.000008    0.000003
   -7   -1    0    3    4    0.000061   -0.000002
   -7   -1    0    4    4   -0.000023    0.000000
   -7   -1    0    5    4   -0.000014    0.000001
   -7   -1    0    1    5   -0.000010   -0.000009
   -7   -1    0    2    5    0.000005    0.000005
   -7   -1    0    3    5    0.000237    0.000001
   -7   -1    0    4    5   -0.000085   -0.000001
   -7   -1    0    5    5   -0.000051   -0.000000
   -7    0    0    1    1    0.002245    0.000001
   -7    0    0    2    1   -0.002235   -0.000000
   -7    0    0    3    1   -0.000007    0.000007
   -7    0    0    4    1   -0.000008   -0.000000
   -7    0    0    5    1    0.000008   -0.000003
   -7    0    0    1    2   -0.001922    0.000000
   -7    0    0    2    2    0.002246   -0.000001
   -7    0    0    3    2    0.000009   -0.000009
   -7    0    0    4    2    0.000009   -0.000002
   -7    0    0    5    2   -0.000010    0.000007
   -7    0    0    1    3   -0.000003    0.000003
   -7    0    0    2    3    0.000004    0.000002
   -7    0    0    3    3   -0.000007   -0.000000
   -7    0    0    4    3   -0.000061    0.000001
   -7    0    0    5    3    0.000122   -0.000001
   -7    0    0    1    4   -0.000008    0.000001
   -7    0    0    2    4    0.000009    0.000001
   -7    0    0    3    4   -0.000014    0.000000
   -7    0    0    4    4    0.000076    0.000000
   -7    0    0    5    4   -0.000061    0.000000
   -7    0    0    1    5   -0.000002   -0.000003
   -7    0    0    2    5   -0.000004    0.000001
   -7    0    0    3    5   -0.000093    0.000001
   -7    0    0    4    5   -0.000014   -0.000001
   -7    0    0    5    5   -0.000005    0.000000
   -7    1    0    1    1    0.001723    0.000000
   -7    1    0    2    1   -0.001935   -0.000000
   -7    1    0    3    1   -0.000003   -0.000000
   -7    1    0    4    1   -0.000009    0.000003
   -7    1    0    5    1    0.000002    0.000001
   -7    1    0    1    2   -0.001505    0.000000
   -7    1    0    2    2    0.001724   -0.000000
   -7    1    0    3    2    0.000005   -0.000003
   -7    1    0    4    2    0.000009   -0.000003
   -7    1    0    5    2   -0.000005    0.000002
   -7    1    0    1    3   -0.000004   -0.000002
   -7    1    0    2    3    0.000006    0.000006
   -7    1    0    3    3    0.000160    0.000000
   -7    1    0    4    3   -0.000061    0.000001
   -7    1    0    5    3   -0.000049   -0.000002
   -7    1    0    1    4   -0.000004    0.000006
   -7    1    0    2    4    0.000005   -0.000003
   -7    1    0    3    4   -0.000073    0.000000
   -7    1    0    4    4    0.000071    0.000000
   -7    1    0    5    4   -0.000073    0.000001
   -7    1    0    1    5    0.000002   -0.000003
   -7    1    0    2    5   -0.000006   -0.000001
   -7    1    0    3    5   -0.000050    0.000000
   -7    1    0    4    5   -0.000061   -0.000000
   -7    1    0    5    5    0.000159    0.000000
   -6   -8    0    1    1    0.000799    0.000001
   -6   -8    0    2    1   -0.001240   -0.000000
   -6   -8    0    3    1    0.000001    0.000003
   -6   -8    0    4    1   -0.000004   -0.000001
   -6   -8    0    5    1    0.000005    0.000001
   -6   -8    0    1    2   -0.000212    0.000000
   -6   -8    0    2    2    0.000799   -0.000001
   -6   -8    0    3    2   -0.000001   -0.000006
   -6   -8    0    4    2    0.000004    0.000007
   -6   -8    0    5    2   -0.000005    0.000001
   -6   -8    0    1    3    0.000002   -0.000001
   -6   -8    0    2    3    0.000000    0.000003
   -6   -8    0    3    3    0.000030   -0.000000
   -6   -8    0    4    3    0.000053    0.000000
   -6   -8    0    5    3   -0.000073   -0.000001
   -6   -8    0    1    4   -0.000011   -0.000005
   -6   -8    0    2    4    0.000009    0.000003
   -6   -8    0    3    4   -0.000042   -0.000001
   -6   -8    0    4    4   -0.000060    0.000000
   -6   -8    0    5    4    0.000090    0.000002
   -6   -8    0    1    5    0.000008    0.000008
   -6   -8    0    2    5   -0.000009   -0.000008
   -6   -8    0    3    5   -0.000041   -0.000000
   -6   -8    0    4    5    0.000026    0.000000
   -6   -8    0    5    5    0.000026    0.000000
   -6   -7    0    1    1    0.001582   -0.000003
   -6   -7    0    2    1   -0.001935   -0.000000
   -6   -7    0    3    1   -0.000006    0.000007
   -6   -7    0    4    1    0.000001   -0.000007
   -6   -7    0    5    1    0.000007   -0.000001
   -6   -7    0    1    2   -0.001042    0.000000
   -6   -7    0    2    2    0.001583    0.000003
   -6   -7    0    3    2    0.000005   -0.000011
   -6   -7    0    4    2   -0.000003    0.000014
   -6   -7    0    5    2   -0.000005    0.000003
   -6   -7    0    1    3    0.000001    0.000003
   -6   -7    0    2    3    0.000003   -0.000001
   -6   -7    0    3    3   -0.000051    0.000000
   -6   -7    0    4    3   -0.000049    0.000002
   -6   -7    0    5    3   -0.000014   -0.000001
   -6   -7    0    1    4   -0.000006   -0.000009
   -6   -7    0    2    4    0.000003    0.000004
   -6   -7    0    3    4    0.000237   -0.000001
   -6   -7    0    4    4   -0.000131   -0.000000
   -6   -7    0    5    4    0.000061    0.000002
   -6   -7    0    1    5    0.000009    0.000012
   -6   -7    0    2    5   -0.000011   -0.000009
   -6   -7    0    3    5   -0.000085    0.000001
   -6   -7    0    4    5    0.000090   -0.000002
   -6   -7    0    5    5   -0.000024   -0.000000
   -6   -6    0    1    1    0.001458   -0.000001
   -6   -6    0    2    1   -0.001924   -0.000000
   -6   -6    0    3    1   -0.000009    0.000013
   -6   -6    0    4    1    0.000005   -0.000012
   -6   -6    0    5    1    0.000005   -0.000002
   -6   -6    0    1    2   -0.000767    0.000000
   -6   -6    0    2    2    0.001459    0.000001
   -6   -6    0    3    2    0.000010   -0.000014
   -6   -6    0    4    2   -0.000010    0.000019
   -6   -6    0    5    2   -0.000001    0.000001
   -6   -6    0    1    3    0.000002    0.000012
   -6   -6    0    2    3    0.000001   -0.000007
   -6   -6    0    3    3    0.000167   -0.000000
   -6   -6    0    4    3   -0.000094    0.000001
   -6   -6    0    5    3    0.000060   -0.000000
   -6   -6    0    1    4    0.000001   -0.000013
   -6   -6    0    2    4   -0.000003    0.000006
   -6   -6    0    3    4   -0.000086    0.000000
   -6   -6    0    4    4    0.000163    0.000000
   -6   -6    0    5    4   -0.000063   -0.000000
   -6   -6    0    1    5    0.000004    0.000008
   -6   -6    0    2    5   -0.000005   -0.000003
   -6   -6    0    3    5   -0.000065    0.000002
   -6   -6    0    4    5    0.000061   -0.000002
   -6   -6    0    5    5   -0.000130    0.000000
   -6   -5    0    1    1    0.000528    0.000008
   -6   -5    0    2    1   -0.001044   -0.000000
   -6   -5    0    3    1   -0.000008    0.000017
   -6   -5    0    4    1    0.000006   -0.000012
   -6   -5    0    5    1    0.000002   -0.000002
   -6   -5    0    1    2   -0.000030    0.000000
   -6   -5    0    2    2    0.000529   -0.000008
   -6   -5    0    3    2    0.000011   -0.000016
   -6   -5    0    4    2   -0.000013    0.000019
   -6   -5    0    5    2    0.000001   -0.000001
   -6   -5    0    1    3    0.000008    0.000023
   -6   -5    0    2    3   -0.000006   -0.000013
   -6   -5    0    3    3   -0.000364    0.000000
   -6   -5    0    4    3    0.000235   -0.000001
   -6   -5    0    5    3    0.000022   -0.000000
   -6   -5    0    1    4    0.000005   -0.000021
   -6   -5    0    2    4   -0.000004    0.000013
   -6   -5    0    3    4    0.000041   -0.000000
   -6   -5    0    4    4   -0.000271    0.000000
   -6   -5    0    5    4    0.000254    0.000001
   -6   -5    0    1    5   -0.000004   -0.000009
   -6   -5    0    2    5    0.000004    0.000010
   -6   -5    0    3    5    0.000317    0.000002
   -6   -5    0    4    5   -0.000063    0.000000
   -6   -5    0    5    5   -0.000207    0.000000
   -6   -4    0    1    1   -0.000100    0.000017
   -6   -4    0    2    1   -0.000296    0.000000
   -6   -4    0    3    1   -0.000004    0.000018
   -6   -4    0    4    1    0.000000   -0.000007
   -6   -4    0    5    1    0.000000   -0.000003
   -6   -4    0    1    2    0.000277    0.000001
   -6   -4    0    2    2   -0.000100   -0.000017
   -6   -4    0    3    2    0.000011   -0.000018
   -6   -4    0    4    2   -0.000008    0.000010
   -6   -4    0    5    2    0.000000    0.000001
   -6   -4    0    1    3    0.000013    0.000031
   -6   -4    0    2    3   -0.000014   -0.000020
   -6   -4    0    3    3    0.000203   -0.000000
   -6   -4    0    4    3   -0.000206   -0.000000
   -6   -4    0    5    3    0.000018   -0.000000
   -6   -4    0    1    4    0.000003   -0.000036
   -6   -4    0    2    4    0.000002    0.000025
   -6   -4    0    3    4    0.000113   -0.000001
   -6   -4    0    4    4    0.000106    0.000000
   -6   -4    0    5    4   -0.000150    0.000001
   -6   -4    0    1    5   -0.000004   -0.000027
   -6   -4    0    2    5    0.000007    0.000021
   -6   -4    0    3    5   -0.000482    0.000002
   -6   -4    0    4    5    0.000253   -0.000001
   -6   -4    0    5    5    0.000115   -0.000000
   -6   -3    0    1    1   -0.000573    0.000020
   -6   -3    0    2    1    0.000184   -0.000000
   -6   -3    0    3    1   -0.000006    0.000017
   -6   -3    0    4    1   -0.000006   -0.000003
   -6   -3    0    5    1   -0.000001   -0.000007
   -6   -3    0    1    2    0.000437    0.000000
   -6   -3    0    2    2   -0.000574   -0.000020
   -6   -3    0    3    2    0.000018   -0.000022
   -6   -3    0    4    2   -0.000002    0.000002
   -6   -3    0    5    2   -0.000000    0.000008
   -6   -3    0    1    3    0.000007    0.000032
   -6   -3    0    2    3   -0.000014   -0.000025
   -6   -3    0    3    3    0.000057   -0.000000
   -6   -3    0    4    3    0.000019    0.000000
   -6   -3    0    5    3    0.000021    0.000001
   -6   -3    0    1    4    0.000009   -0.000036
   -6   -3    0    2    4    0.000003    0.000028
   -6   -3    0    3    4    0.000043    0.000001
   -6   -3    0    4    4    0.000056   -0.000000
   -6   -3    0    5    4   -0.000151   -0.000001
   -6   -3    0    1    5    0.000003   -0.000032
   -6   -3    0    2    5    0.000005    0.000022
   -6   -3    0    3    5    0.000043   -0.000000
   -6   -3    0    4    5   -0.000150   -0.000002
   -6   -3    0    5    5    0.000054   -0.000000
   -6   -2    0    1    1   -0.000100    0.000015
   -6   -2    0    2    1   -0.000295   -0.000000
   -6   -2    0    3    1   -0.000009    0.000015
   -6   -2    0    4    1   -0.000009   -0.000002
   -6   -2    0    5    1   -0.000001   -0.000011
   -6   -2    0    1    2    0.000267    0.000000
   -6   -2    0    2    2   -0.000100   -0.000015
   -6   -2    0    3    2    0.000023   -0.000024
   -6   -2    0    4    2    0.000003   -0.000002
   -6   -2    0    5    2   -0.000000    0.000015
   -6   -2    0    1    3   -0.000000    0.000028
   -6   -2    0    2    3   -0.000010   -0.000025
   -6   -2    0    3    3    0.000201   -0.000000
   -6   -2    0    4    3    0.000017    0.000001
   -6   -2    0    5    3   -0.000204    0.000000
   -6   -2    0    1    4    0.000017   -0.000017
   -6   -2    0    2    4   -0.000002    0.000016
   -6   -2    0    3    4   -0.000481    0.000001
   -6   -2    0    4    4    0.000118   -0.000000
   -6   -2    0    5    4    0.000251    0.000001
   -6   -2    0    1    5   -0.000003   -0.000031
   -6   -2    0    2    5    0.000010    0.000020
   -6   -2    0    3    5    0.000113   -0.000002
   -6   -2    0    4    5   -0.000151    0.000000
   -6   -2    0    5    5    0.000107    0.000000
   -6   -1    0    1    1    0.000529    0.000007
   -6   -1    0    2    1   -0.001044   -0.000000
   -6   -1    0    3    1   -0.000010    0.000013
   -6   -1    0    4    1   -0.000008   -0.000002
   -6   -1    0    5    1    0.000003   -0.000012
   -6   -1    0    1    2   -0.000041    0.000000
   -6   -1    0    2    2    0.000529   -0.000007
   -6   -1    0    3    2    0.000019   -0.000020
   -6   -1    0    4    2    0.000004   -0.000001
   -6   -1    0    5    2   -0.000003    0.000019
   -6   -1    0    1    3   -0.000000    0.000023
   -6   -1    0    2    3   -0.000006   -0.000020
   -6   -1    0    3    3   -0.000367    0.000000
   -6   -1    0    4    3    0.000022    0.000002
   -6   -1    0    5    3    0.000237   -0.000001
   -6   -1    0    1    4    0.000011   -0.000001
   -6   -1    0    2    4   -0.000001    0.000004
   -6   -1    0    3    4    0.000319   -0.000000
   -6   -1    0    4    4   -0.000206   -0.000000
   -6   -1    0    5    4   -0.000065    0.000002
   -6   -1    0    1    5   -0.000015   -0.000025
   -6   -1    0    2    5    0.000014    0.000016
   -6   -1    0    3    5    0.000041   -0.000001
   -6   -1    0    4    5    0.000251   -0.000001
   -6   -1    0    5    5   -0.000270    0.000000
   -6    0    0    1    1    0.001458    0.000001
   -6    0    0    2    1   -0.001926   -0.000000
   -6    0    0    3    1   -0.000010    0.000011
   -6    0    0    4    1   -0.000009   -0.000000
   -6    0    0    5    1    0.000009   -0.000011
   -6    0    0    1    2   -0.000772    0.000000
   -6    0    0    2    2    0.001459   -0.000000
   -6    0    0    3    2    0.000014   -0.000014
   -6    0    0    4    2    0.000008   -0.000001
   -6    0    0    5    2   -0.000008    0.000018
   -6    0    0    1    3    0.000001    0.000017
   -6    0    0    2    3   -0.000001   -0.000011
   -6    0    0    3    3    0.000163   -0.000000
   -6    0    0    4    3    0.000061    0.000002
   -6    0    0    5    3   -0.000094   -0.000001
   -6    0    0    1    4   -0.000004    0.000005
   -6    0    0    2    4    0.000007   -0.000002
   -6    0    0    3    4   -0.000063    0.000000
   -6    0    0    4    4   -0.000129    0.000000
   -6    0    0    5    4    0.000060    0.000000
   -6    0    0    1    5   -0.000017   -0.000014
   -6    0    0    2    5    0.000010    0.000009
   -6    0    0    3    5   -0.000086   -0.000000
   -6    0    0    4    5   -0.000065   -0.000002
   -6    0    0    5    5    0.000166    0.000000
   -6    1    0    1    1    0.001582   -0.000001
   -6    1    0    2    1   -0.001937   -0.000000
   -6    1    0    3    1   -0.000009    0.000007
   -6    1    0    4    1   -0.000009    0.000002
   -6    1    0    5    1    0.000009   -0.000007
   -6    1    0    1    2   -0.001041   -0.000000
   -6    1    0    2    2    0.001583    0.000001
   -6    1    0    3    2    0.000011   -0.000008
   -6    1    0    4    2    0.000010   -0.000002
   -6    1    0    5    2   -0.000009    0.000012
   -6    1    0    1    3   -0.000001    0.000011
   -6    1    0    2    3    0.000003   -0.000003
   -6    1    0    3    3   -0.000051    0.000000
   -6    1    0    4    3   -0.000014    0.000000
   -6    1    0    5    3   -0.000050   -0.000000
   -6    1    0    1    4   -0.000008    0.000009
   -6    1    0    2    4    0.000007   -0.000006
   -6    1    0    3    4   -0.000083    0.000001
   -6    1    0    4    4   -0.000025   -0.000000
   -6    1    0    5    4    0.000090   -0.000000
   -6    1    0    1    5   -0.000010   -0.000007
   -6    1    0    2    5    0.000002    0.000005
   -6    1    0    3    5    0.000235   -0.000001
   -6    1    0    4    5    0.000060   -0.000000
   -6    1    0    5    5   -0.000129   -0.000000
   -6    2    0    1    1    0.000798    0.000002
   -6    2    0    2    1   -0.001240   -0.000000
   -6    2    0    3    1   -0.000003   -0.000000
   -6    2    0    4    1   -0.000006    0.000003
   -6    2    0    5    1    0.000003   -0.000001
   -6    2    0    1    2   -0.000209    0.000000
   -6    2    0    2    2    0.000799   -0.000002
   -6    2    0    3    2    0.000005   -0.000001
   -6    2    0    4    2    0.000005   -0.000002
   -6    2    0    5    2   -0.000004    0.000003
   -6    2    0    1    3   -0.000001    0.000006
   -6    2    0    2    3    0.000002   -0.000000
   -6    2    0    3    3    0.000032   -0.000000
   -6    2    0    4    3   -0.000073   -0.000000
   -6    2    0    5    3    0.000053   -0.000000
   -6    2    0    1    4   -0.000000    0.000011
   -6    2    0    2    4    0.000000   -0.000009
   -6    2    0    3    4   -0.000040    0.000001
   -6    2    0    4    4    0.000025   -0.000000
   -6    2    0    5    4    0.000026    0.000000
   -6    2    0    1    5   -0.000006   -0.000011
   -6    2    0    2    5    0.000001    0.000007
   -6    2    0    3    5   -0.000045   -0.000000
   -6    2    0    4    5    0.000090    0.000000
   -6    2    0    5    5   -0.000060    0.000000
   -6    3    0    1    1   -0.000439    0.000005
   -6    3    0    2    1    0.000091   -0.000000
   -6    3    0    3    1    0.000008   -0.000006
   -6    3    0    4    1   -0.000004    0.000003
   -6    3    0    5    1   -0.000003    0.000004
   -6    3    0    1    2    0.000876    0.000000
   -6    3    0    2    2   -0.000439   -0.000005
   -6    3    0    3    2   -0.000005    0.000003
   -6    3    0    4    2    0.000002   -0.000001
   -6    3    0    5    2    0.000001   -0.000003
   -6    3    0    1    3    0.000005    0.000002
   -6    3    0    2    3   -0.000004    0.000001
   -6    3    0    3    3   -0.000039    0.000000
   -6    3    0    4    3    0.000026   -0.000000
   -6    3    0    5    3    0.000013    0.000000
   -6    3    0    1    4    0.000004    0.000009
   -6    3    0    2    4   -0.000001   -0.000008
   -6    3    0    3    4    0.000040    0.000000
   -6    3    0    4    4   -0.000077   -0.000000
   -6    3    0    5    4    0.000040   -0.000001
   -6    3    0    1    5   -0.000006   -0.000013
   -6    3    0    2    5    0.000003    0.000008
   -6    3    0    3    5    0.000011    0.000000
   -6    3    0    4    5    0.000026   -0.000000
   -6    3    0    5    5   -0.000040    0.000000
   -5   -9    0    1    1   -0.001568    0.000007
   -5   -9    0    2    1    0.001359   -0.000001
   -5   -9    0    3    1    0.000006   -0.000002
   -5   -9    0    4    1   -0.000009   -0.000002
   -5   -9    0    5    1   -0.000000    0.000004
   -5   -9    0    1    2    0.001299    0.000000
   -5   -9    0    2    2   -0.001568   -0.000007
   -5   -9    0    3    2   -0.000001   -0.000002
   -5   -9    0    4    2    0.000004    0.000008
   -5   -9    0    5    2    0.000002   -0.000004
   -5   -9    0    1    3    0.000004    0.000001
   -5   -9    0    2    3   -0.000005   -0.000001
   -5   -9    0    3    3    0.000029   -0.000000
   -5   -9    0    4    3   -0.000066   -0.000000
   -5   -9    0    5    3    0.000040    0.000001
   -5   -9    0    1    4   -0.000010    0.000001
   -5   -9    0    2    4    0.000011   -0.000001
   -5   -9    0    3    4    0.000034    0.000000
   -5   -9    0    4    4    0.000017   -0.000000
   -5   -9    0    5    4   -0.000049   -0.000001
   -5   -9    0    1    5   -0.000000   -0.000005
   -5   -9    0    2    5    0.000000    0.000002
   -5   -9    0    3    5   -0.000045   -0.000001
   -5   -9    0    4    5    0.000047    0.000001
   -5   -9    0    5    5   -0.000014    0.000000
   -5   -8    0    1    1   -0.000519    0.000002
   -5   -8    0    2    1    0.000091   -0.000000
   -5   -8    0    3    1    0.000002    0.000005
   -5   -8    0    4    1   -0.000006   -0.000008
   -5   -8    0    5    1    0.000002    0.000001
   -5   -8    0    1    2    0.000631    0.000000
   -5   -8    0    2    2   -0.000519   -0.000001
   -5   -8    0    3    2   -0.000001   -0.000008
   -5   -8    0    4    2    0.000003    0.000015
   -5   -8    0    5    2    0.000000   -0.000001
   -5   -8    0    1    3    0.000006   -0.000000
   -5   -8    0    2    3   -0.000004    0.000001
   -5   -8    0    3    3    0.000038    0.000000
   -5   -8    0    4    3    0.000013   -0.000000
   -5   -8    0    5    3   -0.000041    0.000000
   -5   -8    0    1    4   -0.000015   -0.000006
   -5   -8    0    2    4    0.000012    0.000003
   -5   -8    0    3    4   -0.000087    0.000000
   -5   -8    0    4    4    0.000032   -0.000000
   -5   -8    0    5    4    0.000011    0.000001
   -5   -8    0    1    5    0.000005   -0.000000
   -5   -8    0    2    5   -0.000005   -0.000004
   -5   -8    0    3    5    0.000022   -0.000001
   -5   -8    0    4    5   -0.000049    0.000001
   -5   -8    0    5    5    0.000054    0.000000
   -5   -7    0    1    1    0.000691   -0.000006
   -5   -7    0    2    1   -0.001216   -0.000000
   -5   -7    0    3    1   -0.000001    0.000011
   -5   -7    0    4    1    0.000000   -0.000015
   -5   -7    0    5    1    0.000004   -0.000003
   -5   -7    0    1    2   -0.000293    0.000000
   -5   -7    0    2    2    0.000691    0.000006
   -5   -7    0    3    2   -0.000001   -0.000016
   -5   -7    0    4    2   -0.000002    0.000021
   -5   -7    0    5    2   -0.000001    0.000004
   -5   -7    0    1    3    0.000010    0.000001
   -5   -7    0    2    3   -0.000004   -0.000001
   -5   -7    0    3    3    0.000179   -0.000000
   -5   -7    0    4    3   -0.000042    0.000001
   -5   -7    0    5    3   -0.000085   -0.000001
   -5   -7    0    1    4   -0.000015   -0.000018
   -5   -7    0    2    4    0.000010    0.000010
   -5   -7    0    3    4   -0.000204    0.000000
   -5   -7    0    4    4    0.000046    0.000000
   -5   -7    0    5    4    0.000022    0.000002
   -5   -7    0    1    5    0.000008    0.000007
   -5   -7    0    2    5   -0.000008   -0.000010
   -5   -7    0    3    5   -0.000031   -0.000001
   -5   -7    0    4    5    0.000011   -0.000001
   -5   -7    0    5    5    0.000075   -0.000000
   -5   -6    0    1    1    0.000528   -0.000007
   -5   -6    0    2    1   -0.001170   -0.000000
   -5   -6    0    3    1   -0.000007    0.000015
   -5   -6    0    4    1    0.000009   -0.000021
   -5   -6    0    5    1    0.000002   -0.000003
   -5   -6    0    1    2    0.000241    0.000000
   -5   -6    0    2    2    0.000529    0.000007
   -5   -6    0    3    2    0.000004   -0.000020
   -5   -6    0    4    2   -0.000010    0.000026
   -5   -6    0    5    2    0.000002    0.000005
   -5   -6    0    1    3    0.000012    0.000010
   -5   -6    0    2    3   -0.000004   -0.000009
   -5   -6    0    3    3   -0.000270   -0.000000
   -5   -6    0    4    3    0.000237    0.000001
   -5   -6    0    5    3   -0.000065   -0.000002
   -5   -6    0    1    4   -0.000009   -0.000027
   -5   -6    0    2    4    0.000004    0.000016
   -5   -6    0    3    4    0.000041    0.000001
   -5   -6    0    4    4   -0.000367   -0.000000
   -5   -6    0    5    4    0.000319    0.000000
   -5   -6    0    1    5    0.000004    0.000015
   -5   -6    0    2    5   -0.000006   -0.000013
   -5   -6    0    3    5    0.000251    0.000001
   -5   -6    0    4    5    0.000022   -0.000002
   -5   -6    0    5    5   -0.000206    0.000000
   -5   -5    0    1    1    0.000428    0.000002
   -5   -5    0    2    1   -0.000775   -0.000000
   -5   -5    0    3    1   -0.000012    0.000016
   -5   -5    0    4    1    0.000015   -0.000024
   -5   -5    0    5    1   -0.000002    0.000000
   -5   -5    0    1    2    0.000179    0.000001
   -5   -5    0    2    2    0.000429   -0.000002
   -5   -5    0    3    2    0.000010   -0.000020
   -5   -5    0    4    2   -0.000018    0.000029
   -5   -5    0    5    2    0.000003   -0.000000
   -5   -5    0    1    3    0.000015    0.000027
   -5   -5    0    2    3   -0.000007   -0.000022
   -5   -5    0    3    3   -0.000456    0.000000
   -5   -5    0    4    3   -0.000086   -0.000000
   -5   -5    0    5    3    0.000318   -0.000002
   -5   -5    0    1    4   -0.000003   -0.000029
   -5   -5    0    2    4   -0.000002    0.000020
   -5   -5    0    3    4    0.001176    0.000001
   -5   -5    0    4    4   -0.000461   -0.000000
   -5   -5    0    5    4   -0.000039    0.000001
   -5   -5    0    1    5   -0.000006    0.000007
   -5   -5    0    2    5    0.000002   -0.000002
   -5   -5    0    3    5   -0.000041    0.000001
   -5   -5    0    4    5    0.000320   -0.000000
   -5   -5    0    5    5   -0.000363   -0.000000
   -5   -4    0    1    1   -0.000682    0.000017
   -5   -4    0    2    1    0.000230   -0.000000
   -5   -4    0    3    1   -0.000012    0.000016
   -5   -4    0    4    1    0.000015   -0.000018
   -5   -4    0    5    1   -0.000001    0.000003
   -5   -4    0    1    2    0.001548    0.000002
   -5   -4    0    2    2   -0.000681   -0.000017
   -5   -4    0    3    2    0.000016   -0.000019
   -5   -4    0    4    2   -0.000020    0.000022
   -5   -4    0    5    2   -0.000003   -0.000006
   -5   -4    0    1    3    0.000018    0.000044
   -5   -4    0    2    3   -0.000013   -0.000035
   -5   -4    0    3    3    0.000580    0.000000
   -5   -4    0    4    3    0.000040   -0.000000
   -5   -4    0    5    3   -0.000481   -0.000001
   -5   -4    0    1    4   -0.000003   -0.000044
   -5   -4    0    2    4   -0.000003    0.000034
   -5   -4    0    3    4   -0.001086   -0.000002
   -5   -4    0    4    4    0.000350   -0.000000
   -5   -4    0    5    4    0.000398    0.000004
   -5   -4    0    1    5   -0.000006   -0.000020
   -5   -4    0    2    5    0.000006    0.000020
   -5   -4    0    3    5   -0.000470    0.000002
   -5   -4    0    4    5   -0.000039   -0.000001
   -5   -4    0    5    5    0.000351    0.000000
   -5   -3    0    1    1   -0.000528    0.000025
   -5   -3    0    2    1    0.000450   -0.000000
   -5   -3    0    3    1   -0.000018    0.000020
   -5   -3    0    4    1    0.000009   -0.000006
   -5   -3    0    5    1    0.000002   -0.000002
   -5   -3    0    1    2    0.000408    0.000002
   -5   -3    0    2    2   -0.000527   -0.000025
   -5   -3    0    3    2    0.000032   -0.000029
   -5   -3    0    4    2   -0.000017    0.000005
   -5   -3    0    5    2   -0.000011   -0.000001
   -5   -3    0    1    3    0.000006    0.000046
   -5   -3    0    2    3   -0.000010   -0.000039
   -5   -3    0    3    3   -0.000040   -0.000000
   -5   -3    0    4    3    0.000113    0.000001
   -5   -3    0    5    3    0.000043    0.000001
   -5   -3    0    1    4    0.000010   -0.000056
   -5   -3    0    2    4   -0.000008    0.000047
   -5   -3    0    3    4    0.000156    0.000000
   -5   -3    0    4    4   -0.000667   -0.000000
   -5   -3    0    5    4    0.000364    0.000001
   -5   -3    0    1    5    0.000013   -0.000042
   -5   -3    0    2    5   -0.000004    0.000034
   -5   -3    0    3    5    0.000146    0.000002
   -5   -3    0    4    5    0.000398   -0.000004
   -5   -3    0    5    5   -0.000517    0.000000
   -5   -2    0    1    1   -0.000528    0.000021
   -5   -2    0    2    1    0.000454   -0.000000
   -5   -2    0    3    1   -0.000029    0.000028
   -5   -2    0    4    1    0.000005    0.000003
   -5   -2    0    5    1    0.000001   -0.000012
   -5   -2    0    1    2    0.000393    0.000002
   -5   -2    0    2    2   -0.000527   -0.000021
   -5   -2    0    3    2    0.000052   -0.000047
   -5   -2    0    4    2   -0.000018   -0.000007
   -5   -2    0    5    2   -0.000010    0.000011
   -5   -2    0    1    3   -0.000017    0.000031
   -5   -2    0    2    3    0.000002   -0.000033
   -5   -2    0    3    3   -0.000040   -0.000000
   -5   -2    0    4    3    0.000043   -0.000000
   -5   -2    0    5    3    0.000113    0.000002
   -5   -2    0    1    4    0.000038   -0.000033
   -5   -2    0    2    4   -0.000022    0.000032
   -5   -2    0    3    4    0.000147    0.000004
   -5   -2    0    4    4   -0.000517    0.000000
   -5   -2    0    5    4    0.000397   -0.000001
   -5   -2    0    1    5    0.000020   -0.000050
   -5   -2    0    2    5   -0.000006    0.000036
   -5   -2    0    3    5    0.000153   -0.000002
   -5   -2    0    4    5    0.000364   -0.000001
   -5   -2    0    5    5   -0.000664   -0.000000
   -5   -1    0    1    1   -0.000682    0.000010
   -5   -1    0    2    1    0.000238   -0.000000
   -5   -1    0    3    1   -0.000030    0.000028
   -5   -1    0    4    1    0.000002    0.000003
   -5   -1    0    5    1    0.000001   -0.000019
   -5   -1    0    1    2    0.001519    0.000002
   -5   -1    0    2    2   -0.000681   -0.000010
   -5   -1    0    3    2    0.000049   -0.000047
   -5   -1    0    4    2   -0.000017   -0.000004
   -5   -1    0    5    2   -0.000003    0.000022
   -5   -1    0    1    3   -0.000020    0.000022
   -5   -1    0    2    3    0.000006   -0.000026
   -5   -1    0    3    3    0.000579    0.000000
   -5   -1    0    4    3   -0.000481   -0.000001
   -5   -1    0    5    3    0.000041    0.000001
   -5   -1    0    1    4    0.000044    0.000002
   -5   -1    0    2    4   -0.000026    0.000007
   -5   -1    0    3    4   -0.000469    0.000002
   -5   -1    0    4    4    0.000352    0.000000
   -5   -1    0    5    4   -0.000041    0.000001
   -5   -1    0    1    5   -0.000004   -0.000050
   -5   -1    0    2    5    0.000010    0.000035
   -5   -1    0    3    5   -0.001089   -0.000004
   -5   -1    0    4    5    0.000397    0.000001
   -5   -1    0    5    5    0.000354   -0.000000
   -5    0    0    1    1    0.000429   -0.000002
   -5    0    0    2    1   -0.000770   -0.000000
   -5    0    0    3    1   -0.000020    0.000020
   -5    0    0    4    1   -0.000002    0.000001
   -5    0    0    5    1    0.000004   -0.000021
   -5    0    0    1    2    0.000157    0.000001
   -5    0    0    2    2    0.000430    0.000002
   -5    0    0    3    2    0.000028   -0.000030
   -5    0    0    4    2   -0.000008    0.000001
   -5    0    0    5    2   -0.000002    0.000028
   -5    0    0    1    3   -0.000005    0.000023
   -5    0    0    2    3    0.000000   -0.000022
   -5    0    0    3    3   -0.000461   -0.000000
   -5    0    0    4    3    0.000320    0.000000
   -5    0    0    5    3   -0.000086    0.000000
   -5    0    0    1    4    0.000018    0.000013
   -5    0    0    2    4   -0.000009   -0.000006
   -5    0    0    3    4   -0.000039   -0.000001
   -5    0    0    4    4   -0.000363   -0.000000
   -5    0    0    5    4    0.000318    0.000002
   -5    0    0    1    5   -0.000025   -0.000035
   -5    0    0    2    5    0.000021    0.000025
   -5    0    0    3    5    0.001176   -0.000001
   -5    0    0    4    5   -0.000041   -0.000001
   -5    0    0    5    5   -0.000456    0.000000
   -5    1    0    1    1    0.000528   -0.000008
   -5    1    0    2    1   -0.001171   -0.000000
   -5    1    0    3    1   -0.000014    0.000011
   -5    1    0    4    1   -0.000009    0.000000
   -5    1    0    5    1    0.000009   -0.000018
   -5    1    0    1    2    0.000234    0.000000
   -5    1    0    2    2    0.000529    0.000008
   -5    1    0    3    2    0.000015   -0.000013
   -5    1    0    4    2    0.000007    0.000001
   -5    1    0    5    2   -0.000005    0.000025
   -5    1    0    1    3    0.000002    0.000024
   -5    1    0    2    3   -0.000000   -0.000017
   -5    1    0    3    3   -0.000271   -0.000000
   -5    1    0    4    3   -0.000063   -0.000000
   -5    1    0    5    3    0.000235    0.000001
   -5    1    0    1    4   -0.000005    0.000014
   -5    1    0    2    4    0.000007   -0.000010
   -5    1    0    3    4    0.000254   -0.000001
   -5    1    0    4    4   -0.000207    0.000000
   -5    1    0    5    4    0.000022   -0.000000
   -5    1    0    1    5   -0.000024   -0.000016
   -5    1    0    2    5    0.000017    0.000012
   -5    1    0    3    5    0.000041    0.000000
   -5    1    0    4    5    0.000317   -0.000002
   -5    1    0    5    5   -0.000364   -0.000000
   -5    2    0    1    1    0.000691   -0.000005
   -5    2    0    2    1   -0.001219   -0.000000
   -5    2    0    3    1   -0.000009    0.000004
   -5    2    0    4    1   -0.000008    0.000001
   -5    2    0    5    1    0.000007   -0.000009
   -5    2    0    1    2   -0.000292   -0.000000
   -5    2    0    2    2    0.000690    0.000005
   -5    2    0    3    2    0.000010   -0.000002
   -5    2    0    4    2    0.000011   -0.000000
   -5    2    0    5    2   -0.000006    0.000013
   -5    2    0    1    3    0.000001    0.000019
   -5    2    0    2    3    0.000001   -0.000012
   -5    2    0    3    3    0.000181   -0.000000
   -5    2    0    4    3   -0.000083   -0.000001
   -5    2    0    5    3   -0.000044    0.000000
   -5    2    0    1    4   -0.000005    0.000016
   -5    2    0    2    4    0.000005   -0.000013
   -5    2    0    3    4   -0.000030   -0.000000
   -5    2    0    4    4    0.000072   -0.000000
   -5    2    0    5    4    0.000012    0.000000
   -5    2    0    1    5   -0.000015   -0.000013
   -5    2    0    2    5    0.000010    0.000011
   -5    2    0    3    5   -0.000206   -0.000000
   -5    2    0    4    5    0.000022    0.000000
   -5    2    0    5    5    0.000048    0.000000
   -5    3    0    1    1   -0.000519    0.000002
   -5    3    0    2    1    0.000089   -0.000000
   -5    3    0    3    1   -0.000001   -0.000001
   -5    3    0    4    1   -0.000003    0.000001
   -5    3    0    5    1    0.000001    0.000000
   -5    3    0    1    2    0.000633    0.000000
   -5    3    0    2    2   -0.000520   -0.000002
   -5    3    0    3    2    0.000003    0.000001
   -5    3    0    4    2    0.000004    0.000000
   -5    3    0    5    2   -0.000001    0.000001
   -5    3    0    1    3    0.000002    0.000011
   -5    3    0    2    3   -0.000002   -0.000006
   -5    3    0    3    3    0.000041   -0.000000
   -5    3    0    4    3   -0.000040   -0.000001
   -5    3    0    5    3    0.000012   -0.000000
   -5    3    0    1    4    0.000004    0.000014
   -5    3    0    2    4   -0.000003   -0.000012
   -5    3    0    3    4    0.000023    0.000000
   -5    3    0    4    4    0.000051    0.000000
   -5    3    0    5    4   -0.000048    0.000000
   -5    3    0    1    5   -0.000011   -0.000019
   -5    3    0    2    5    0.000008    0.000015
   -5    3    0    3    5   -0.000090    0.000000
   -5    3    0    4    5    0.000012   -0.000000
   -5    3    0    5    5    0.000032   -0.000000
   -5    4    0    1    1   -0.001568    0.000007
   -5    4    0    2    1    0.001359   -0.000001
   -5    4    0    3    1    0.000007   -0.000003
   -5    4    0    4    1   -0.000001    0.000001
   -5    4    0    5    1   -0.000002    0.000005
   -5    4    0    1    2    0.001299    0.000000
   -5    4    0    2    2   -0.001568   -0.000007
   -5    4    0    3    2   -0.000003    0.000001
   -5    4    0    4    2   -0.000000    0.000001
   -5    4    0    5    2    0.000002   -0.000005
   -5    4    0    1    3    0.000005    0.000005
   -5    4    0    2    3   -0.000007   -0.000002
   -5    4    0    3    3    0.000030    0.000000
   -5    4    0    4    3    0.000040   -0.000000
   -5    4    0    5    3   -0.000065    0.000000
   -5    4    0    1    4    0.000005    0.000008
   -5    4    0    2    4   -0.000003   -0.000007
   -5    4    0    3    4   -0.000045    0.000001
   -5    4    0    4    4   -0.000015    0.000000
   -5    4    0    5    4    0.000047   -0.000001
   -5    4    0    1    5   -0.000009   -0.000018
   -5    4    0    2    5    0.000008    0.000014
   -5    4    0    3    5    0.000032   -0.000000
   -5    4    0    4    5   -0.000048   -0.000000
   -5    4    0    5    5    0.000016   -0.000000
   -5    5    0    1    1   -0.002269    0.000009
   -5    5    0    2    1    0.002024   -0.000001
   -5    5    0    3    1    0.000009   -0.000004
   -5    5    0    4    1   -0.000006    0.000001
   -5    5    0    5    1   -0.000001    0.000005
   -5    5    0    1    2    0.002038    0.000001
   -5    5    0    2    2   -0.002269   -0.000009
   -5    5    0    3    2   -0.000004    0.000001
   -5    5    0    4    2    0.000002    0.000002
   -5    5    0    5    2    0.000003   -0.000005
   -5    5    0    1    3    0.000005    0.000002
   -5    5    0    2    3   -0.000007   -0.000001
   -5    5    0    3    3   -0.000090    0.000000
   -5    5    0    4    3    0.000047   -0.000001
   -5    5    0    5    3    0.000047    0.000000
   -5    5    0    1    4   -0.000002    0.000003
   -5    5    0    2    4    0.000004   -0.000002
   -5    5    0    3    4    0.000047    0.000000
   -5    5    0    4    4   -0.000089    0.000000
   -5    5    0    5    4    0.000047   -0.000001
   -5    5    0    1    5   -0.000006   -0.000011
   -5    5    0    2    5    0.000005    0.000008
   -5    5    0    3    5    0.000047   -0.000001
   -5    5    0    4    5    0.000047    0.000000
   -5    5    0    5    5   -0.000090    0.000000
   -4   -9    0    1    1   -0.001568    0.000007
   -4   -9    0    2    1    0.002023   -0.000001
   -4   -9    0    3    1    0.000000    0.000001
   -4   -9    0    4    1   -0.000002   -0.000007
   -4   -9    0    5    1   -0.000003    0.000006
   -4   -9    0    1    2    0.000876    0.000000
   -4   -9    0    2    2   -0.001568   -0.000007
   -4   -9    0    3    2    0.000003   -0.000004
   -4   -9    0    4    2   -0.000001    0.000010
   -4   -9    0    5    2    0.000003   -0.000008
   -4   -9    0    1    3    0.000002    0.000002
   -4   -9    0    2    3   -0.000003   -0.000003
   -4   -9    0    3    3   -0.000015    0.000000
   -4   -9    0    4    3    0.000047   -0.000001
   -4   -9    0    5    3   -0.000045    0.000001
   -4   -9    0    1    4   -0.000007   -0.000001
   -4   -9    0    2    4    0.000007   -0.000001
   -4   -9    0    3    4   -0.000048   -0.000000
   -4   -9    0    4    4    0.000016   -0.000000
   -4   -9    0    5    4    0.000032   -0.000000
   -4   -9    0    1    5    0.000000   -0.000009
   -4   -9    0    2    5    0.000002    0.000008
   -4   -9    0    3    5    0.000040   -0.000000
   -4   -9    0    4    5   -0.000066    0.000000
   -4   -9    0    5    5    0.000030   -0.000000
   -4   -8    0    1    1   -0.000916    0.000002
   -4   -8    0    2    1    0.001063   -0.000000
   -4   -8    0    3    1    0.000001    0.000006
   -4   -8    0    4    1   -0.000003   -0.000015
   -4   -8    0    5    1   -0.000003    0.000005
   -4   -8    0    1    2    0.000631    0.000000
   -4   -8    0    2    2   -0.000916   -0.000002
   -4   -8    0    3    2   -0.000000   -0.000007
   -4   -8    0    4    2    0.000000    0.000019
   -4   -8    0    5    2    0.000003   -0.000010
   -4   -8    0    1    3    0.000007    0.000002
   -4   -8    0    2    3   -0.000005   -0.000001
   -4   -8    0    3    3   -0.000076   -0.000000
   -4   -8    0    4    3    0.000034   -0.000000
   -4   -8    0    5    3    0.000022    0.000002
   -4   -8    0    1    4   -0.000016   -0.000008
   -4   -8    0    2    4    0.000014    0.000003
   -4   -8    0    3    4    0.000084   -0.000000
   -4   -8    0    4    4   -0.000114    0.000000
   -4   -8    0    5    4    0.000082   -0.000000
   -4   -8    0    1    5    0.000006   -0.000007
   -4   -8    0    2    5   -0.000003    0.000004
   -4   -8    0    3    5    0.000023   -0.000000
   -4   -8    0    4    5    0.000032    0.000000
   -4   -8    0    5    5   -0.000073   -0.000000
   -4   -7    0    1    1    0.000023   -0.000008
   -4   -7    0    2    1   -0.000050   -0.000000
   -4   -7    0    3    1    0.000003    0.000014
   -4   -7    0    4    1    0.000000   -0.000022
   -4   -7    0    5    1   -0.000002    0.000000
   -4   -7    0    1    2    0.000185    0.000000
   -4   -7    0    2    2    0.000022    0.000008
   -4   -7    0    3    2   -0.000007   -0.000014
   -4   -7    0    4    2   -0.000001    0.000025
   -4   -7    0    5    2    0.000004   -0.000006
   -4   -7    0    1    3    0.000017    0.000002
   -4   -7    0    2    3   -0.000011    0.000000
   -4   -7    0    3    3    0.000125    0.000000
   -4   -7    0    4    3   -0.000087   -0.000000
   -4   -7    0    5    3   -0.000032    0.000001
   -4   -7    0    1    4   -0.000020   -0.000026
   -4   -7    0    2    4    0.000016    0.000016
   -4   -7    0    3    4    0.000022    0.000000
   -4   -7    0    4    4    0.000013    0.000000
   -4   -7    0    5    4    0.000017    0.000000
   -4   -7    0    1    5    0.000009   -0.000005
   -4   -7    0    2    5   -0.000007   -0.000001
   -4   -7    0    3    5   -0.000174   -0.000000
   -4   -7    0    4    5    0.000081   -0.000000
   -4   -7    0    5    5    0.000050   -0.000000
   -4   -6    0    1    1   -0.000100   -0.000015
   -4   -6    0    2    1   -0.000421   -0.000000
   -4   -6    0    3    1    0.000001    0.000020
   -4   -6    0    4    1    0.000007   -0.000026
   -4   -6    0    5    1   -0.000003   -0.000005
   -4   -6    0    1    2    0.000457    0.000000
   -4   -6    0    2    2   -0.000101    0.000015
   -4   -6    0    3    2   -0.000007   -0.000022
   -4   -6    0    4    2   -0.000007    0.000027
   -4   -6    0    5    2    0.000009    0.000002
   -4   -6    0    1    3    0.000024    0.000006
   -4   -6    0    2    3   -0.000015   -0.000005
   -4   -6    0    3    3    0.000107   -0.000000
   -4   -6    0    4    3   -0.000204    0.000000
   -4   -6    0    5    3    0.000251   -0.000001
   -4   -6    0    1    4   -0.000017   -0.000044
   -4   -6    0    2    4    0.000013    0.000031
   -4   -6    0    3    4    0.000113    0.000002
   -4   -6    0    4    4    0.000201    0.000000
   -4   -6    0    5    4   -0.000481   -0.000001
   -4   -6    0    1    5    0.000006    0.000007
   -4   -6    0    2    5   -0.000006   -0.000011
   -4   -6    0    3    5   -0.000151   -0.000000
   -4   -6    0    4    5    0.000017   -0.000001
   -4   -6    0    5    5    0.000118    0.000000
   -4   -5    0    1    1   -0.000682   -0.000010
   -4   -5    0    2    1   -0.000044   -0.000001
   -4   -5    0    3    1   -0.000006    0.000023
   -4   -5    0    4    1    0.000016   -0.000030
   -4   -5    0    5    1   -0.000005   -0.000004
   -4   -5    0    1    2    0.000942    0.000001
   -4   -5    0    2    2   -0.000681    0.000010
   -4   -5    0    3    2    0.000002   -0.000031
   -4   -5    0    4    2   -0.000016    0.000031
   -4   -5    0    5    2    0.000011    0.000004
   -4   -5    0    1    3    0.000026    0.000016
   -4   -5    0    2    3   -0.000018   -0.000019
   -4   -5    0    3    3    0.000354    0.000000
   -4   -5    0    4    3    0.000041   -0.000001
   -4   -5    0    5    3   -0.000041   -0.000001
   -4   -5    0    1    4   -0.000007   -0.000041
   -4   -5    0    2    4    0.000007    0.000033
   -4   -5    0    3    4   -0.001089    0.000004
   -4   -5    0    4    4    0.000579   -0.000000
   -4   -5    0    5    4   -0.000469   -0.000002
   -4   -5    0    1    5   -0.000005    0.000016
   -4   -5    0    2    5    0.000003   -0.000014
   -4   -5    0    3    5    0.000397   -0.000001
   -4   -5    0    4    5   -0.000481    0.000001
   -4   -5    0    5    5    0.000352   -0.000000
   -4   -4    0    1    1   -0.001139    0.000007
   -4   -4    0    2    1    0.000152   -0.000001
   -4   -4    0    3    1   -0.000012    0.000023
   -4   -4    0    4    1    0.000021   -0.000030
   -4   -4    0    5    1   -0.000000    0.000004
   -4   -4    0    1    2    0.001572    0.000003
   -4   -4    0    2    2   -0.001136   -0.000007
   -4   -4    0    3    2    0.000014   -0.000040
   -4   -4    0    4    2   -0.000023    0.000035
   -4   -4    0    5    2   -0.000001   -0.000004
   -4   -4    0    1    3    0.000030    0.000031
   -4   -4    0    2    3   -0.000023   -0.000038
   -4   -4    0    3    3   -0.001748   -0.000000
   -4   -4    0    4    3    0.001177   -0.000001
   -4   -4    0    5    3   -0.000469   -0.000003
   -4   -4    0    1    4   -0.000006   -0.000033
   -4   -4    0    2    4    0.000007    0.000037
   -4   -4    0    3    4    0.000475   -0.000000
   -4   -4    0    4    4   -0.001752   -0.000000
   -4   -4    0    5    4    0.001579    0.000004
   -4   -4    0    1    5   -0.000017    0.000000
   -4   -4    0    2    5    0.000011    0.000004
   -4   -4    0    3    5    0.001580   -0.000003
   -4   -4    0    4    5   -0.000468    0.000002
   -4   -4    0    5    5   -0.000142    0.000000
   -4   -3    0    1    1   -0.001532    0.000020
   -4   -3    0    2    1    0.000917   -0.000001
   -4   -3    0    3    1   -0.000023    0.000029
   -4   -3    0    4    1    0.000020   -0.000014
   -4   -3    0    5    1    0.000012    0.000005
   -4   -3    0    1    2    0.000569    0.000004
   -4   -3    0    2    2   -0.001528   -0.000020
   -4   -3    0    3    2    0.000027   -0.000055
   -4   -3    0    4    2   -0.000021    0.000020
   -4   -3    0    5    2   -0.000026   -0.000004
   -4   -3    0    1    3    0.000032    0.000043
   -4   -3    0    2    3   -0.000020   -0.000049
   -4   -3    0    3    3    0.001535    0.000000
   -4   -3    0    4    3   -0.001086    0.000002
   -4   -3    0    5    3    0.000146   -0.000002
   -4   -3    0    1    4   -0.000026   -0.000061
   -4   -3    0    2    4    0.000007    0.000058
   -4   -3    0    3    4   -0.000669   -0.000002
   -4   -3    0    4    4    0.000334    0.000000
   -4   -3    0    5    4   -0.000031    0.000004
   -4   -3    0    1    5   -0.000006   -0.000034
   -4   -3    0    2    5   -0.000003    0.000032
   -4   -3    0    3    5   -0.001996    0.000001
   -4   -3    0    4    5    0.001579   -0.000003
   -4   -3    0    5    5   -0.000134   -0.000000
   -4   -2    0    1    1    0.000112    0.000019
   -4   -2    0    2    1    0.000144   -0.000001
   -4   -2    0    3    1   -0.000051    0.000052
   -4   -2    0    4    1    0.000022    0.000005
   -4   -2    0    5    1    0.000018   -0.000006
   -4   -2    0    1    2   -0.003246    0.000005
   -4   -2    0    2    2    0.000116   -0.000019
   -4   -2    0    3    2    0.000074   -0.000093
   -4   -2    0    4    2   -0.000030   -0.000003
   -4   -2    0    5    2   -0.000038    0.000009
   -4   -2    0    1    3   -0.000011    0.000026
   -4   -2    0    2    3    0.000008   -0.000037
   -4   -2    0    3    3    0.000553   -0.000000
   -4   -2    0    4    3    0.000156   -0.000000
   -4   -2    0    5    3    0.000153    0.000002
   -4   -2    0    1    4    0.000017   -0.000055
   -4   -2    0    2    4   -0.000024    0.000054
   -4   -2    0    3    4    0.000324    0.000005
   -4   -2    0    4    4   -0.000719   -0.000000
   -4   -2    0    5    4   -0.000030   -0.000003
   -4   -2    0    1    5    0.000036   -0.000053
   -4   -2    0    2    5   -0.000028    0.000046
   -4   -2    0    3    5    0.000321    0.000001
   -4   -2    0    4    5   -0.000031   -0.000004
   -4   -2    0    5    5   -0.000715   -0.000000
   -4   -1    0    1    1   -0.001532    0.000007
   -4   -1    0    2    1    0.000937   -0.000001
   -4   -1    0    3    1   -0.000066    0.000065
   -4   -1    0    4    1    0.000027    0.000009
   -4   -1    0    5    1    0.000009   -0.000019
   -4   -1    0    1    2    0.000530    0.000004
   -4   -1    0    2    2   -0.001528   -0.000007
   -4   -1    0    3    2    0.000096   -0.000105
   -4   -1    0    4    2   -0.000045   -0.000006
   -4   -1    0    5    2   -0.000020    0.000022
   -4   -1    0    1    3   -0.000048    0.000007
   -4   -1    0    2    3    0.000030   -0.000021
   -4   -1    0    3    3    0.001538    0.000000
   -4   -1    0    4    3    0.000147   -0.000004
   -4   -1    0    5    3   -0.001088    0.000004
   -4   -1    0    1    4    0.000070    0.000007
   -4   -1    0    2    4   -0.000054    0.000011
   -4   -1    0    3    4   -0.001998    0.000004
   -4   -1    0    4    4   -0.000136   -0.000000
   -4   -1    0    5    4    0.001580   -0.000002
   -4   -1    0    1    5    0.000023   -0.000073
   -4   -1    0    2    5   -0.000014    0.000056
   -4   -1    0    3    5   -0.000676   -0.000003
   -4   -1    0    4    5   -0.000031    0.000003
   -4   -1    0    5    5    0.000340    0.000000
   -4    0    0    1    1   -0.001138   -0.000007
   -4    0    0    2    1    0.000174   -0.000001
   -4    0    0    3    1   -0.000047    0.000048
   -4    0    0    4    1    0.000022    0.000002
   -4    0    0    5    1    0.000001   -0.000029
   -4    0    0    1    2    0.001533    0.000003
   -4    0    0    2    2   -0.001136    0.000007
   -4    0    0    3    2    0.000063   -0.000067
   -4    0    0    4    2   -0.000040    0.000005
   -4    0    0    5    2   -0.000001    0.000034
   -4    0    0    1    3   -0.000029    0.000018
   -4    0    0    2    3    0.000018   -0.000021
   -4    0    0    3    3   -0.001752    0.000000
   -4    0    0    4    3   -0.000468   -0.000002
   -4    0    0    5    3    0.001177    0.000001
   -4    0    0    1    4    0.000056    0.000030
   -4    0    0    2    4   -0.000042   -0.000015
   -4    0    0    3    4    0.001579   -0.000004
   -4    0    0    4    4   -0.000142   -0.000000
   -4    0    0    5    4   -0.000469    0.000003
   -4    0    0    1    5   -0.000020   -0.000072
   -4    0    0    2    5    0.000018    0.000052
   -4    0    0    3    5    0.000475    0.000000
   -4    0    0    4    5    0.001580    0.000003
   -4    0    0    5    5   -0.001748   -0.000000
   -4    1    0    1    1   -0.000682   -0.000017
   -4    1    0    2    1   -0.000034   -0.000000
   -4    1    0    3    1   -0.000022    0.000022
   -4    1    0    4    1    0.000005   -0.000001
   -4    1    0    5    1    0.000001   -0.000031
   -4    1    0    1    2    0.000924    0.000001
   -4    1    0    2    2   -0.000681    0.000017
   -4    1    0    3    2    0.000024   -0.000027
   -4    1    0    4    2   -0.000012    0.000005
   -4    1    0    5    2    0.000002    0.000039
   -4    1    0    1    3   -0.000002    0.000029
   -4    1    0    2    3    0.000002   -0.000026
   -4    1    0    3    3    0.000350    0.000000
   -4    1    0    4    3   -0.000039    0.000001
   -4    1    0    5    3    0.000040    0.000000
   -4    1    0    1    4    0.000014    0.000024
   -4    1    0    2    4   -0.000008   -0.000017
   -4    1    0    3    4    0.000398   -0.000004
   -4    1    0    4    4    0.000352   -0.000000
   -4    1    0    5    4   -0.000481    0.000001
   -4    1    0    1    5   -0.000035   -0.000035
   -4    1    0    2    5    0.000029    0.000028
   -4    1    0    3    5   -0.001086    0.000002
   -4    1    0    4    5   -0.000470   -0.000002
   -4    1    0    5    5    0.000580   -0.000000
   -4    2    0    1    1   -0.000100   -0.000017
   -4    2    0    2    1   -0.000420   -0.000000
   -4    2    0    3    1   -0.000012    0.000005
   -4    2    0    4    1   -0.000010   -0.000001
   -4    2    0    5    1    0.000005   -0.000022
   -4    2    0    1    2    0.000455    0.000000
   -4    2    0    2    2   -0.000100    0.000017
   -4    2    0    3    2    0.000011   -0.000004
   -4    2    0    4    2    0.000012   -0.000000
   -4    2    0    5    2   -0.000003    0.000027
   -4    2    0    1    3    0.000003    0.000028
   -4    2    0    2    3   -0.000001   -0.000025
   -4    2    0    3    3    0.000106   -0.000000
   -4    2    0    4    3    0.000253    0.000001
   -4    2    0    5    3   -0.000206    0.000000
   -4    2    0    1    4   -0.000003    0.000020
   -4    2    0    2    4    0.000006   -0.000017
   -4    2    0    3    4   -0.000150   -0.000001
   -4    2    0    4    4    0.000115    0.000000
   -4    2    0    5    4    0.000018    0.000000
   -4    2    0    1    5   -0.000023   -0.000012
   -4    2    0    2    5    0.000021    0.000013
   -4    2    0    3    5    0.000113    0.000001
   -4    2    0    4    5   -0.000482   -0.000001
   -4    2    0    5    5    0.000203    0.000000
   -4    3    0    1    1    0.000023   -0.000008
   -4    3    0    2    1   -0.000052   -0.000000
   -4    3    0    3    1   -0.000007   -0.000000
   -4    3    0    4    1   -0.000010   -0.000001
   -4    3    0    5    1    0.000003   -0.000007
   -4    3    0    1    2    0.000188    0.000000
   -4    3    0    2    2    0.000022    0.000008
   -4    3    0    3    2    0.000008    0.000002
   -4    3    0    4    2    0.000014   -0.000001
   -4    3    0    5    2   -0.000003    0.000009
   -4    3    0    1    3    0.000000    0.000020
   -4    3    0    2    3   -0.000001   -0.000017
   -4    3    0    3    3    0.000128    0.000000
   -4    3    0    4    3   -0.000030    0.000000
   -4    3    0    5    3   -0.000090   -0.000000
   -4    3    0    1    4    0.000002    0.000018
   -4    3    0    2    4    0.000000   -0.000016
   -4    3    0    3    4   -0.000174    0.000001
   -4    3    0    4    4    0.000046   -0.000000
   -4    3    0    5    4    0.000084    0.000000
   -4    3    0    1    5   -0.000014   -0.000017
   -4    3    0    2    5    0.000014    0.000017
   -4    3    0    3    5    0.000019    0.000000
   -4    3    0    4    5    0.000018   -0.000000
   -4    3    0    5    5    0.000014    0.000000
   -4    4    0    1    1   -0.000916    0.000002
   -4    4    0    2    1    0.001062   -0.000000
   -4    4    0    3    1   -0.000001   -0.000000
   -4    4    0    4    1   -0.000002   -0.000001
   -4    4    0    5    1   -0.000001    0.000002
   -4    4    0    1    2    0.000632    0.000000
   -4    4    0    2    2   -0.000917   -0.000002
   -4    4    0    3    2    0.000004   -0.000000
   -4    4    0    4    2    0.000003    0.000001
   -4    4    0    5    2    0.000001   -0.000003
   -4    4    0    1    3    0.000001    0.000011
   -4    4    0    2    3   -0.000004   -0.000008
   -4    4    0    3    3   -0.000073   -0.000000
   -4    4    0    4    3    0.000023   -0.000000
   -4    4    0    5    3    0.000032    0.000000
   -4    4    0    1    4    0.000007    0.000011
   -4    4    0    2    4   -0.000006   -0.000011
   -4    4    0    3    4    0.000022    0.000002
   -4    4    0    4    4   -0.000076   -0.000000
   -4    4    0    5    4    0.000034   -0.000000
   -4    4    0    1    5   -0.000010   -0.000023
   -4    4    0    2    5    0.000011    0.000021
   -4    4    0    3    5    0.000082   -0.000000
   -4    4    0    4    5    0.000084   -0.000000
   -4    4    0    5    5   -0.000114    0.000000
   -4    5    0    1    1   -0.001568    0.000007
   -4    5    0    2    1    0.002023   -0.000001
   -4    5    0    3    1    0.000002    0.000000
   -4    5    0    4    1    0.000001   -0.000002
   -4    5    0    5    1   -0.000003    0.000005
   -4    5    0    1    2    0.000876    0.000000
   -4    5    0    2    2   -0.001568   -0.000007
   -4    5    0    3    2    0.000003   -0.000003
   -4    5    0    4    2   -0.000002    0.000004
   -4    5    0    5    2    0.000003   -0.000006
   -4    5    0    1    3    0.000001    0.000004
   -4    5    0    2    3   -0.000005   -0.000004
   -4    5    0    3    3   -0.000013   -0.000000
   -4    5    0    4    3   -0.000045   -0.000001
   -4    5    0    5    3    0.000047    0.000001
   -4    5    0    1    4    0.000003    0.000004
   -4    5    0    2    4   -0.000002   -0.000004
   -4    5    0    3    4    0.000040    0.000001
   -4    5    0    4    4    0.000029   -0.000000
   -4    5    0    5    4   -0.000066   -0.000000
   -4    5    0    1    5   -0.000006   -0.000017
   -4    5    0    2    5    0.000008    0.000016
   -4    5    0    3    5   -0.000049   -0.000001
   -4    5    0    4    5    0.000034    0.000000
   -4    5    0    5    5    0.000017    0.000000
   -3   -8    0    1    1   -0.000519    0.000002
   -3   -8    0    2    1    0.001062   -0.000000
   -3   -8    0    3    1   -0.000002    0.000006
   -3   -8    0    4    1    0.000001   -0.000015
   -3   -8    0    5    1   -0.000003    0.000011
   -3   -8    0    1    2   -0.000210    0.000000
   -3   -8    0    2    2   -0.000519   -0.000002
   -3   -8    0    3    2    0.000002   -0.000006
   -3   -8    0    4    2   -0.000002    0.000016
   -3   -8    0    5    2   -0.000000   -0.000016
   -3   -8    0    1    3    0.000005    0.000002
   -3   -8    0    2    3   -0.000004   -0.000002
   -3   -8    0    3    3    0.000051    0.000000
   -3   -8    0    4    3   -0.000048    0.000000
   -3   -8    0    5    3    0.000023    0.000000
   -3   -8    0    1    4   -0.000013   -0.000011
   -3   -8    0    2    4    0.000012    0.000006
   -3   -8    0    3    4    0.000012   -0.000000
   -3   -8    0    4    4    0.000032   -0.000000
   -3   -8    0    5    4   -0.000090    0.000000
   -3   -8    0    1    5    0.000009   -0.000005
   -3   -8    0    2    5   -0.000005    0.000007
   -3   -8    0    3    5   -0.000040   -0.000000
   -3   -8    0    4    5    0.000011   -0.000000
   -3   -8    0    5    5    0.000041    0.000000
   -3   -7    0    1    1    0.000023   -0.000008
   -3   -7    0    2    1    0.000205   -0.000000
   -3   -7    0    3    1    0.000005    0.000011
   -3   -7    0    4    1    0.000000   -0.000024
   -3   -7    0    5    1   -0.000004    0.000012
   -3   -7    0    1    2   -0.000295    0.000000
   -3   -7    0    2    2    0.000022    0.000008
   -3   -7    0    3    2   -0.000008   -0.000008
   -3   -7    0    4    2   -0.000000    0.000023
   -3   -7    0    5    2    0.000004   -0.000022
   -3   -7    0    1    3    0.000018    0.000005
   -3   -7    0    2    3   -0.000014   -0.000002
   -3   -7    0    3    3    0.000046   -0.000000
   -3   -7    0    4    3    0.000084    0.000000
   -3   -7    0    5    3   -0.000174    0.000001
   -3   -7    0    1    4   -0.000020   -0.000028
   -3   -7    0    2    4    0.000019    0.000020
   -3   -7    0    3    4    0.000018   -0.000000
   -3   -7    0    4    4    0.000014    0.000000
   -3   -7    0    5    4    0.000020    0.000000
   -3   -7    0    1    5    0.000011   -0.000007
   -3   -7    0    2    5   -0.000009    0.000007
   -3   -7    0    3    5   -0.000030    0.000000
   -3   -7    0    4    5   -0.000090   -0.000000
   -3   -7    0    5    5    0.000128    0.000000
   -3   -6    0    1    1   -0.000573   -0.000020
   -3   -6    0    2    1    0.000207   -0.000000
   -3   -6    0    3    1    0.000010    0.000018
   -3   -6    0    4    1    0.000004   -0.000026
   -3   -6    0    5    1   -0.000008    0.000006
   -3   -6    0    1    2    0.000452    0.000000
   -3   -6    0    2    2   -0.000574    0.000020
   -3   -6    0    3    2   -0.000014   -0.000013
   -3   -6    0    4    2   -0.000003    0.000022
   -3   -6    0    5    2    0.000012   -0.000017
   -3   -6    0    1    3    0.000029    0.000009
   -3   -6    0    2    3   -0.000024   -0.000005
   -3   -6    0    3    3    0.000054    0.000000
   -3   -6    0    4    3    0.000021   -0.000001
   -3   -6    0    5    3   -0.000151    0.000001
   -3   -6    0    1    4   -0.000020   -0.000051
   -3   -6    0    2    4    0.000020    0.000043
   -3   -6    0    3    4    0.000043    0.000000
   -3   -6    0    4    4    0.000057    0.000000
   -3   -6    0    5    4    0.000043   -0.000001
   -3   -6    0    1    5    0.000010   -0.000003
   -3   -6    0    2    5   -0.000009    0.000001
   -3   -6    0    3    5   -0.000150    0.000002
   -3   -6    0    4    5    0.000019   -0.000000
   -3   -6    0    5    5    0.000056    0.000000
[...]
    7    1    0    2    1   -0.001168    0.000000
    7    1    0    3    1    0.000003   -0.000013
    7    1    0    4    1   -0.000006    0.000002
    7    1    0    5    1   -0.000010    0.000009
    7    1    0    1    2   -0.001507    0.000000
    7    1    0    2    2    0.001583    0.000003
    7    1    0    3    2   -0.000003    0.000007
    7    1    0    4    2    0.000008   -0.000003
    7    1    0    5    2    0.000005   -0.000005
    7    1    0    1    3   -0.000004   -0.000008
    7    1    0    2    3    0.000008    0.000010
    7    1    0    3    3   -0.000131    0.000000
    7    1    0    4    3    0.000061    0.000002
    7    1    0    5    3    0.000237   -0.000001
    7    1    0    1    4   -0.000005    0.000004
    7    1    0    2    4    0.000008   -0.000001
    7    1    0    3    4    0.000090   -0.000002
    7    1    0    4    4   -0.000023   -0.000000
    7    1    0    5    4   -0.000085    0.000001
    7    1    0    1    5    0.000006    0.000003
    7    1    0    2    5   -0.000007   -0.000009
    7    1    0    3    5   -0.000049    0.000001
    7    1    0    4    5   -0.000014   -0.000001
    7    1    0    5    5   -0.000051    0.000000
    7    2    0    1    1    0.000691   -0.000006
    7    2    0    2    1   -0.000419    0.000000
    7    2    0    3    1    0.000010   -0.000020
    7    2    0    4    1   -0.000002    0.000008
    7    2    0    5    1   -0.000011    0.000014
    7    2    0    1    2   -0.000213    0.000000
    7    2    0    2    2    0.000691    0.000006
    7    2    0    3    2   -0.000012    0.000015
    7    2    0    4    2    0.000007   -0.000006
    7    2    0    5    2    0.000010   -0.000009
    7    2    0    1    3    0.000000   -0.000008
    7    2    0    2    3    0.000006    0.000012
    7    2    0    3    3    0.000046    0.000000
    7    2    0    4    3    0.000022    0.000002
    7    2    0    5    3   -0.000204    0.000000
    7    2    0    1    4   -0.000006    0.000005
    7    2    0    2    4    0.000009   -0.000003
    7    2    0    3    4    0.000011   -0.000001
    7    2    0    4    4    0.000075   -0.000000
    7    2    0    5    4   -0.000031   -0.000001
    7    2    0    1    5    0.000001    0.000003
    7    2    0    2    5   -0.000001   -0.000010
    7    2    0    3    5   -0.000042    0.000001
    7    2    0    4    5   -0.000085   -0.000001
    7    2    0    5    5    0.000179   -0.000000
    7    3    0    1    1    0.000023   -0.000008
    7    3    0    2    1    0.000209    0.000000
    7    3    0    3    1    0.000015   -0.000022
    7    3    0    4    1   -0.000006    0.000018
    7    3    0    5    1   -0.000007    0.000016
    7    3    0    1    2    0.000630    0.000000
    7    3    0    2    2    0.000022    0.000008
    7    3    0    3    2   -0.000018    0.000017
    7    3    0    4    2    0.000013   -0.000013
    7    3    0    5    2    0.000007   -0.000011
    7    3    0    1    3    0.000004   -0.000011
    7    3    0    2    3    0.000003    0.000015
    7    3    0    3    3    0.000013    0.000000
    7    3    0    4    3    0.000017    0.000000
    7    3    0    5    3    0.000022    0.000000
    7    3    0    1    4   -0.000010    0.000004
    7    3    0    2    4    0.000010   -0.000003
    7    3    0    3    4    0.000081   -0.000000
    7    3    0    4    4    0.000050   -0.000000
    7    3    0    5    4   -0.000174   -0.000000
    7    3    0    1    5   -0.000000    0.000004
    7    3    0    2    5    0.000001   -0.000009
    7    3    0    3    5   -0.000087   -0.000000
    7    3    0    4    5   -0.000032    0.000001
    7    3    0    5    5    0.000125    0.000000
    7    4    0    1    1    0.000023   -0.000008
    7    4    0    2    1    0.000210    0.000000
    7    4    0    3    1    0.000017   -0.000018
    7    4    0    4    1   -0.000007    0.000023
    7    4    0    5    1   -0.000006    0.000018
    7    4    0    1    2    0.000630    0.000000
    7    4    0    2    2    0.000022    0.000008
    7    4    0    3    2   -0.000018    0.000012
    7    4    0    4    2    0.000013   -0.000016
    7    4    0    5    2    0.000005   -0.000012
    7    4    0    1    3    0.000004   -0.000015
    7    4    0    2    3    0.000001    0.000018
    7    4    0    3    3    0.000014    0.000000
    7    4    0    4    3    0.000020    0.000000
    7    4    0    5    3    0.000018   -0.000000
    7    4    0    1    4   -0.000010    0.000001
    7    4    0    2    4    0.000006   -0.000003
    7    4    0    3    4   -0.000090   -0.000000
    7    4    0    4    4    0.000128    0.000000
    7    4    0    5    4   -0.000030   -0.000000
    7    4    0    1    5    0.000002    0.000004
    7    4    0    2    5   -0.000001   -0.000006
    7    4    0    3    5    0.000084    0.000000
    7    4    0    4    5   -0.000174    0.000001
    7    4    0    5    5    0.000046   -0.000000
    7    5    0    1    1    0.000691   -0.000005
    7    5    0    2    1   -0.000417   -0.000000
    7    5    0    3    1    0.000011   -0.000012
    7    5    0    4    1   -0.000001    0.000016
    7    5    0    5    1   -0.000006    0.000014
    7    5    0    1    2   -0.000212    0.000000
    7    5    0    2    2    0.000691    0.000005
    7    5    0    3    2   -0.000011    0.000006
    7    5    0    4    2    0.000006   -0.000011
    7    5    0    5    2    0.000003   -0.000011
    7    5    0    1    3    0.000000   -0.000016
    7    5    0    2    3    0.000004    0.000018
    7    5    0    3    3    0.000048    0.000000
    7    5    0    4    3   -0.000206   -0.000000
    7    5    0    5    3    0.000022   -0.000000
    7    5    0    1    4   -0.000006    0.000000
    7    5    0    2    4   -0.000000   -0.000006
    7    5    0    3    4   -0.000044    0.000000
    7    5    0    4    4    0.000181   -0.000000
    7    5    0    5    4   -0.000083   -0.000001
    7    5    0    1    5    0.000006    0.000005
    7    5    0    2    5   -0.000002   -0.000004
    7    5    0    3    5    0.000012    0.000000
    7    5    0    4    5   -0.000030    0.000000
    7    5    0    5    5    0.000072   -0.000000
    7    6    0    1    1    0.001583   -0.000001
    7    6    0    2    1   -0.001168   -0.000000
    7    6    0    3    1    0.000001   -0.000007
    7    6    0    4    1    0.000004    0.000007
    7    6    0    5    1    0.000001    0.000003
    7    6    0    1    2   -0.001506    0.000000
    7    6    0    2    2    0.001583    0.000001
    7    6    0    3    2   -0.000002    0.000002
    7    6    0    4    2    0.000000   -0.000004
    7    6    0    5    2   -0.000003   -0.000004
    7    6    0    1    3   -0.000005   -0.000012
    7    6    0    2    3    0.000008    0.000014
    7    6    0    3    3   -0.000129   -0.000000
    7    6    0    4    3    0.000235   -0.000001
    7    6    0    5    3    0.000060   -0.000000
    7    6    0    1    4   -0.000003    0.000002
    7    6    0    2    4   -0.000003   -0.000008
    7    6    0    3    4   -0.000050   -0.000000
    7    6    0    4    4   -0.000051    0.000000
    7    6    0    5    4   -0.000014    0.000000
    7    6    0    1    5    0.000009    0.000005
    7    6    0    2    5   -0.000005   -0.000003
    7    6    0    3    5    0.000090   -0.000000
    7    6    0    4    5   -0.000083    0.000001
    7    6    0    5    5   -0.000025   -0.000000
    7    7    0    1    1    0.002245    0.000001
    7    7    0    2    1   -0.001924   -0.000000
    7    7    0    3    1   -0.000003   -0.000002
    7    7    0    4    1    0.000000    0.000003
    7    7    0    5    1    0.000010   -0.000006
    7    7    0    1    2   -0.002235    0.000000
    7    7    0    2    2    0.002246   -0.000001
    7    7    0    3    2    0.000004   -0.000001
    7    7    0    4    2    0.000000   -0.000001
    7    7    0    5    2   -0.000009    0.000003
    7    7    0    1    3   -0.000006   -0.000005
    7    7    0    2    3    0.000008    0.000008
    7    7    0    3    3   -0.000005    0.000000
    7    7    0    4    3   -0.000093    0.000001
    7    7    0    5    3   -0.000014   -0.000001
    7    7    0    1    4   -0.000001    0.000001
    7    7    0    2    4   -0.000002   -0.000006
    7    7    0    3    4    0.000122   -0.000001
    7    7    0    4    4   -0.000007   -0.000000
    7    7    0    5    4   -0.000061    0.000001
    7    7    0    1    5    0.000010    0.000003
    7    7    0    2    5   -0.000008   -0.000002
    7    7    0    3    5   -0.000061    0.000000
    7    7    0    4    5   -0.000014   -0.000000
    7    7    0    5    5    0.000076   -0.000000
    8    2    0    1    1    0.000799    0.000001
    8    2    0    2    1   -0.001216    0.000000
    8    2    0    3    1    0.000006   -0.000009
    8    2    0    4    1   -0.000007    0.000005
    8    2    0    5    1   -0.000006    0.000005
    8    2    0    1    2   -0.000527    0.000000
    8    2    0    2    2    0.000799   -0.000001
    8    2    0    3    2   -0.000004    0.000005
    8    2    0    4    2    0.000005   -0.000003
    8    2    0    5    2    0.000003   -0.000003
    8    2    0    1    3    0.000001   -0.000003
    8    2    0    2    3    0.000001    0.000006
    8    2    0    3    3   -0.000060    0.000000
    8    2    0    4    3    0.000090    0.000002
    8    2    0    5    3   -0.000042   -0.000001
    8    2    0    1    4    0.000000    0.000008
    8    2    0    2    4    0.000003   -0.000006
    8    2    0    3    4    0.000026    0.000000
    8    2    0    4    4    0.000026   -0.000000
    8    2    0    5    4   -0.000041   -0.000000
    8    2    0    1    5   -0.000000   -0.000005
    8    2    0    2    5   -0.000002   -0.000000
    8    2    0    3    5    0.000053    0.000000
    8    2    0    4    5   -0.000073   -0.000001
    8    2    0    5    5    0.000030   -0.000000
    8    3    0    1    1   -0.000519    0.000001
    8    3    0    2    1   -0.000049    0.000000
    8    3    0    3    1    0.000016   -0.000014
    8    3    0    4    1   -0.000010    0.000008
    8    3    0    5    1   -0.000007    0.000007
    8    3    0    1    2    0.000875    0.000000
    8    3    0    2    2   -0.000519   -0.000001
    8    3    0    3    2   -0.000014    0.000009
    8    3    0    4    2    0.000008   -0.000005
    8    3    0    5    2    0.000004   -0.000006
    8    3    0    1    3    0.000007   -0.000004
    8    3    0    2    3   -0.000004    0.000008
    8    3    0    3    3    0.000032   -0.000000
    8    3    0    4    3    0.000011    0.000001
    8    3    0    5    3   -0.000087    0.000000
    8    3    0    1    4   -0.000003    0.000006
    8    3    0    2    4    0.000007   -0.000005
    8    3    0    3    4   -0.000049    0.000001
    8    3    0    4    4    0.000054    0.000000
    8    3    0    5    4    0.000022   -0.000001
    8    3    0    1    5   -0.000002   -0.000005
    8    3    0    2    5    0.000001   -0.000001
    8    3    0    3    5    0.000013   -0.000000
    8    3    0    4    5   -0.000041    0.000000
    8    3    0    5    5    0.000038   -0.000000
    8    4    0    1    1   -0.000916    0.000002
    8    4    0    2    1    0.000206    0.000000
    8    4    0    3    1    0.000019   -0.000012
    8    4    0    4    1   -0.000015    0.000013
    8    4    0    5    1   -0.000005    0.000009
    8    4    0    1    2    0.001298    0.000000
    8    4    0    2    2   -0.000916   -0.000002
    8    4    0    3    2   -0.000017    0.000009
    8    4    0    4    2    0.000014   -0.000008
    8    4    0    5    2    0.000002   -0.000006
    8    4    0    1    3    0.000009   -0.000006
    8    4    0    2    3   -0.000007    0.000011
    8    4    0    3    3   -0.000114    0.000000
    8    4    0    4    3    0.000082   -0.000000
    8    4    0    5    3    0.000084   -0.000000
    8    4    0    1    4   -0.000009    0.000001
    8    4    0    2    4    0.000011   -0.000002
    8    4    0    3    4    0.000032    0.000000
    8    4    0    4    4   -0.000073   -0.000000
    8    4    0    5    4    0.000023   -0.000000
    8    4    0    1    5   -0.000000   -0.000001
    8    4    0    2    5   -0.000001   -0.000002
    8    4    0    3    5    0.000034   -0.000000
    8    4    0    4    5    0.000022    0.000002
    8    4    0    5    5   -0.000076   -0.000000
    8    5    0    1    1   -0.000519    0.000002
    8    5    0    2    1   -0.000050   -0.000000
    8    5    0    3    1    0.000015   -0.000007
    8    5    0    4    1   -0.000012    0.000012
    8    5    0    5    1   -0.000003    0.000009
    8    5    0    1    2    0.000875    0.000000
    8    5    0    2    2   -0.000519   -0.000002
    8    5    0    3    2   -0.000013    0.000005
    8    5    0    4    2    0.000014   -0.000008
    8    5    0    5    2    0.000000   -0.000006
    8    5    0    1    3    0.000006   -0.000008
    8    5    0    2    3   -0.000004    0.000014
    8    5    0    3    3    0.000032   -0.000000
    8    5    0    4    3   -0.000090    0.000000
    8    5    0    5    3    0.000012   -0.000000
    8    5    0    1    4   -0.000011   -0.000002
    8    5    0    2    4    0.000010    0.000001
    8    5    0    3    4    0.000012   -0.000000
    8    5    0    4    4    0.000041   -0.000000
    8    5    0    5    4   -0.000040   -0.000000
    8    5    0    1    5    0.000004    0.000003
    8    5    0    2    5   -0.000004   -0.000004
    8    5    0    3    5   -0.000048    0.000000
    8    5    0    4    5    0.000023    0.000000
    8    5    0    5    5    0.000051    0.000000
    8    6    0    1    1    0.000799    0.000002
    8    6    0    2    1   -0.001217   -0.000000
    8    6    0    3    1    0.000006   -0.000003
    8    6    0    4    1   -0.000004    0.000007
    8    6    0    5    1    0.000001    0.000006
    8    6    0    1    2   -0.000528    0.000000
    8    6    0    2    2    0.000799   -0.000002
    8    6    0    3    2   -0.000006    0.000000
    8    6    0    4    2    0.000007   -0.000003
    8    6    0    5    2   -0.000003   -0.000004
    8    6    0    1    3    0.000001   -0.000007
    8    6    0    2    3    0.000001    0.000012
    8    6    0    3    3   -0.000060    0.000000
    8    6    0    4    3   -0.000045   -0.000000
    8    6    0    5    3    0.000090    0.000000
    8    6    0    1    4   -0.000010   -0.000003
    8    6    0    2    4    0.000006    0.000001
    8    6    0    3    4    0.000053   -0.000000
    8    6    0    4    4    0.000032   -0.000000
    8    6    0    5    4   -0.000073   -0.000000
    8    6    0    1    5    0.000008    0.000007
    8    6    0    2    5   -0.000008   -0.000006
    8    6    0    3    5    0.000026    0.000000
    8    6    0    4    5   -0.000040    0.000000
    8    6    0    5    5    0.000025   -0.000000
    8    7    0    1    1    0.001723    0.000000
    8    7    0    2    1   -0.001936   -0.000000
    8    7    0    3    1   -0.000002    0.000001
    8    7    0    4    1   -0.000000    0.000001
    8    7    0    5    1    0.000007    0.000001
    8    7    0    1    2   -0.001507    0.000000
    8    7    0    2    2    0.001724   -0.000000
    8    7    0    3    2    0.000002   -0.000004
    8    7    0    4    2    0.000002    0.000002
    8    7    0    5    2   -0.000007   -0.000000
    8    7    0    1    3   -0.000003   -0.000003
    8    7    0    2    3    0.000005    0.000006
    8    7    0    3    3    0.000160    0.000000
    8    7    0    4    3   -0.000050    0.000000
    8    7    0    5    3   -0.000061   -0.000000
    8    7    0    1    4   -0.000005   -0.000003
    8    7    0    2    4    0.000003    0.000000
    8    7    0    3    4   -0.000049   -0.000002
    8    7    0    4    4    0.000160    0.000000
    8    7    0    5    4   -0.000061    0.000001
    8    7    0    1    5    0.000011    0.000008
    8    7    0    2    5   -0.000010   -0.000005
    8    7    0    3    5   -0.000073    0.000001
    8    7    0    4    5   -0.000073    0.000000
    8    7    0    5    5    0.000070    0.000000
    9    4    0    1    1   -0.001568    0.000007
    9    4    0    2    1    0.001063   -0.000000
    9    4    0    3    1    0.000015   -0.000008
    9    4    0    4    1   -0.000010    0.000005
    9    4    0    5    1   -0.000002    0.000005
    9    4    0    1    2    0.002038    0.000000
    9    4    0    2    2   -0.001568   -0.000007
    9    4    0    3    2   -0.000011    0.000005
    9    4    0    4    2    0.000005   -0.000002
    9    4    0    5    2    0.000001   -0.000005
    9    4    0    1    3    0.000008    0.000000
    9    4    0    2    3   -0.000009    0.000003
    9    4    0    3    3    0.000017   -0.000000
    9    4    0    4    3   -0.000049   -0.000001
    9    4    0    5    3    0.000034    0.000000
    9    4    0    1    4   -0.000001    0.000004
    9    4    0    2    4    0.000004   -0.000004
    9    4    0    3    4    0.000047    0.000000
    9    4    0    4    4   -0.000014    0.000000
    9    4    0    5    4   -0.000045   -0.000001
    9    4    0    1    5   -0.000005   -0.000010
    9    4    0    2    5    0.000003    0.000006
    9    4    0    3    5   -0.000065   -0.000000
    9    4    0    4    5    0.000040    0.000001
    9    4    0    5    5    0.000029    0.000000
    9    5    0    1    1   -0.001568    0.000007
    9    5    0    2    1    0.001063   -0.000000
    9    5    0    3    1    0.000014   -0.000007
    9    5    0    4    1   -0.000014    0.000006
    9    5    0    5    1   -0.000000    0.000005
    9    5    0    1    2    0.002037    0.000001
    9    5    0    2    2   -0.001568   -0.000007
    9    5    0    3    2   -0.000010    0.000004
    9    5    0    4    2    0.000010   -0.000003
    9    5    0    5    2    0.000000   -0.000004
    9    5    0    1    3    0.000007   -0.000001
    9    5    0    2    3   -0.000008    0.000005
    9    5    0    3    3    0.000016    0.000000
    9    5    0    4    3    0.000032   -0.000000
    9    5    0    5    3   -0.000048   -0.000000
    9    5    0    1    4   -0.000008    0.000001
    9    5    0    2    4    0.000010    0.000000
    9    5    0    3    4   -0.000066    0.000000
    9    5    0    4    4    0.000030   -0.000000
    9    5    0    5    4    0.000040   -0.000000
    9    5    0    1    5   -0.000002   -0.000003
    9    5    0    2    5   -0.000001    0.000001
    9    5    0    3    5    0.000047   -0.000001
    9    5    0    4    5   -0.000045    0.000001
    9    5    0    5    5   -0.000015   -0.000000
    9    6    0    1    1   -0.000439    0.000005
    9    6    0    2    1    0.000090   -0.000000
    9    6    0    3    1    0.000009   -0.000002
    9    6    0    4    1   -0.000011    0.000004
    9    6    0    5    1    0.000002    0.000004
    9    6    0    1    2    0.000875    0.000000
    9    6    0    2    2   -0.000439   -0.000005
    9    6    0    3    2   -0.000005   -0.000000
    9    6    0    4    2    0.000009    0.000001
    9    6    0    5    2   -0.000002   -0.000002
    9    6    0    1    3    0.000004   -0.000002
    9    6    0    2    3   -0.000004    0.000005
    9    6    0    3    3   -0.000040    0.000000
    9    6    0    4    3    0.000011    0.000000
    9    6    0    5    3    0.000026   -0.000000
    9    6    0    1    4   -0.000012   -0.000001
    9    6    0    2    4    0.000011    0.000002
    9    6    0    3    4    0.000013    0.000000
    9    6    0    4    4   -0.000038    0.000000
    9    6    0    5    4    0.000026   -0.000000
    9    6    0    1    5    0.000003    0.000003
    9    6    0    2    5   -0.000005   -0.000004
    9    6    0    3    5    0.000040   -0.000001
    9    6    0    4    5    0.000040    0.000000
    9    6    0    5    5   -0.000077   -0.000000
