 
             +---------------------------------------------------+
             |                                                   |
             |                   WANNIER90                       |
             |                                                   |
             +---------------------------------------------------+
             |                                                   |
             |        Welcome to the Maximally-Localized         |
             |        Generalized Wannier Functions code         |
             |            http://www.wannier.org                 |
             |                                                   |
             |                                                   |
             |  Wannier90 Developer Group:                       |
             |    Giovanni Pizzi    (EPFL)                       |
             |    Valerio Vitale    (Cambridge)                  |
             |    David Vanderbilt  (Rutgers University)         |
             |    Nicola Marzari    (EPFL)                       |
             |    Ivo Souza         (Universidad del Pais Vasco) |
             |    Arash A. Mostofi  (Imperial College London)    |
             |    Jonathan R. Yates (University of Oxford)       |
             |                                                   |
             |  For the full list of Wannier90 3.x authors,      |
             |  please check the code documentation and the      |
             |  README on the GitHub page of the code            |
             |                                                   |
             |                                                   |
             |  Please cite                                      |
             |                                                   |
             |  [ref] "Wannier90 as a community code:            |
             |        new features and applications",            |
             |        G. Pizzi et al., J. Phys. Cond. Matt. 32,  |
             |        165902 (2020).                             |
             |        http://doi.org/10.1088/1361-648X/ab51ff    |
             |                                                   |
             |  in any publications arising from the use of      |
             |  this code. For the method please cite            |
             |                                                   |
             |  [ref] "Maximally Localized Generalised Wannier   |
             |         Functions for Composite Energy Bands"     |
             |         N. Marzari and D. Vanderbilt              |
             |         Phys. Rev. B 56 12847 (1997)              |
             |                                                   |
             |  [ref] "Maximally Localized Wannier Functions     |
             |         for Entangled Energy Bands"               |
             |         I. Souza, N. Marzari and D. Vanderbilt    |
             |         Phys. Rev. B 65 035109 (2001)             |
             |                                                   |
             |                                                   |
             | Copyright (c) 1996-2020                           |
             |        The Wannier90 Developer Group and          |
             |        individual contributors                    |
             |                                                   |
             |      Release: 3.1.0        5th March    2020      |
             |                                                   |
             | This program is free software; you can            |
             | redistribute it and/or modify it under the terms  |
             | of the GNU General Public License as published by |
             | the Free Software Foundation; either version 2 of |
             | the License, or (at your option) any later version|
             |                                                   |
             | This program is distributed in the hope that it   |
             | will be useful, but WITHOUT ANY WARRANTY; without |
             | even the implied warranty of MERCHANTABILITY or   |
             | FITNESS FOR A PARTICULAR PURPOSE. See the GNU     |
             | General Public License for more details.          |
             |                                                   |
             | You should have received a copy of the GNU General|
             | Public License along with this program; if not,   |
             | write to the Free Software Foundation, Inc.,      |
             | 675 Mass Ave, Cambridge, MA 02139, USA.           |
             |                                                   |
             +---------------------------------------------------+
             |    Execution started on  8Nov2021 at 09:53:11     |
             +---------------------------------------------------+
 
 ******************************************************************************
 * -> Using CODATA 2006 constant values                                       *
 *    (http://physics.nist.gov/cuu/Constants/index.html)                      *
 * -> Using Bohr value from CODATA                                            *
 ******************************************************************************
 

 Running in parallel on  20 CPUs

 
                                    ------
                                    SYSTEM
                                    ------
 
                              Lattice Vectors (Ang)
                    a_1     2.447261   0.000000   0.000000
                    a_2    -1.223630   2.119390   0.000000
                    a_3     0.000000   0.000000  20.000000
 
                   Unit Cell Volume:     103.73398  (Ang^3)
 
                        Reciprocal-Space Vectors (Ang^-1)
                    b_1     2.567436   1.482310   0.000000
                    b_2     0.000000   2.964620   0.000000
                    b_3     0.000000   0.000000   0.314159
  
 *----------------------------------------------------------------------------*
 |   Site       Fractional Coordinate          Cartesian Coordinate (Ang)     |
 +----------------------------------------------------------------------------+
 | C    1   0.00000   0.00000   0.50000   |    0.00000   0.00000  10.00000    |
 | C    2   0.66667   0.33333   0.50000   |    1.22363   0.70646  10.00000    |
 *----------------------------------------------------------------------------*
                                ------------
                                K-POINT GRID
                                ------------
  
             Grid size = 15 x 15 x  1      Total points =  225
  
  
 *---------------------------------- MAIN ------------------------------------*
 |  Number of Wannier Functions               :                 5             |
 |  Number of Objective Wannier Functions     :                 5             |
 |  Number of input Bloch states              :                20             |
 |  Output verbosity (1=low, 5=high)          :                 1             |
 |  Timing Level (1=low, 5=high)              :                 1             |
 |  Optimisation (0=memory, 3=speed)          :                 3             |
 |  Length Unit                               :               Ang             |
 |  Post-processing setup (write *.nnkp)      :                 F             |
 |  Using Gamma-only branch of algorithms     :                 F             |
 *----------------------------------------------------------------------------*
 *------------------------------- WANNIERISE ---------------------------------*
 |  Total number of iterations                :               100             |
 |  Number of CG steps before reset           :                 5             |
 |  Trial step length for line search         :             2.000             |
 |  Convergence tolerence                     :         0.100E-09             |
 |  Convergence window                        :                -1             |
 |  Iterations between writing output         :                 1             |
 |  Iterations between backing up to disk     :               100             |
 |  Write r^2_nm to file                      :                 F             |
 |  Write xyz WF centres to file              :                 T             |
 |  Write on-site energies <0n|H|0n> to file  :                 F             |
 |  Use guiding centre to control phases      :                 T             |
 |  Use phases for initial projections        :                 F             |
 |  Iterations before starting guiding centres:                 0             |
 |  Iterations between using guiding centres  :                 1             |
 *----------------------------------------------------------------------------*
 *------------------------------- DISENTANGLE --------------------------------*
 |  Using band disentanglement                :                 T             |
 |  Total number of iterations                :             10000             |
 |  Mixing ratio                              :             0.500             |
 |  Convergence tolerence                     :         1.000E-10             |
 |  Convergence window                        :                 3             |
 *----------------------------------------------------------------------------*
 *-------------------------------- PLOTTING ----------------------------------*
 |  Plotting interpolated bandstructure       :                 T             |
 |   Number of K-path sections                :                 3             |
 |   Divisions along first K-path section     :               100             |
 |   Output format                            :           gnuplot             |
 |   Output mode                              :               s-k             |
 *----------------------------------------------------------------------------*
 |   K-space path sections:                                                   |
 |    From: G       0.000  0.000  0.000     To: K       0.333  0.333  0.000   |
 |    From: K       0.333  0.333  0.000     To: M       0.000  0.500  0.000   |
 |    From: M       0.000  0.500  0.000     To: G       0.000  0.000  0.000   |
 *----------------------------------------------------------------------------*
 |  Plotting Hamiltonian in WF basis          :                 T             |
 *----------------------------------------------------------------------------*
 Time to read parameters        0.033 (sec)

 *---------------------------------- K-MESH ----------------------------------*
 +----------------------------------------------------------------------------+
 |                    Distance to Nearest-Neighbour Shells                    |
 |                    ------------------------------------                    |
 |          Shell             Distance (Ang^-1)          Multiplicity         |
 |          -----             -----------------          ------------         |
 |             1                   0.197641                      6            |
 |             2                   0.314159                      2            |
 |             3                   0.342325                      6            |
 |             4                   0.371158                     12            |
 |             5                   0.395283                      6            |
 |             6                   0.464631                     12            |
 |             7                   0.504920                     12            |
 |             8                   0.522910                     12            |
 |             9                   0.592924                      6            |
 |            10                   0.610025                     24            |
 |            11                   0.628319                      2            |
 |            12                   0.658670                     12            |
 |            13                   0.671010                     12            |
 |            14                   0.684650                      6            |
 |            15                   0.712606                     12            |
 |            16                   0.715521                     12            |
 |            17                   0.742316                     12            |
 |            18                   0.753287                     12            |
 |            19                   0.778783                     24            |
 |            20                   0.790565                      6            |
 |            21                   0.817447                     24            |
 |            22                   0.850699                     12            |
 |            23                   0.861499                     12            |
 |            24                   0.863911                     12            |
 |            25                   0.905706                     12            |
 |            26                   0.916993                     24            |
 |            27                   0.929263                     12            |
 |            28                   0.942478                      2            |
 |            29                   0.950048                     24            |
 |            30                   0.958645                     24            |
 |            31                   0.962978                     12            |
 |            32                   0.988207                      6            |
 |            33                   1.002722                     12            |
 |            34                   1.009840                     12            |
 |            35                   1.022014                     12            |
 |            36                   1.026974                      6            |
 +----------------------------------------------------------------------------+
 | The b-vectors are chosen automatically                                     |
 | The following shells are used:   1,  2                                     |
 +----------------------------------------------------------------------------+
 |                        Shell   # Nearest-Neighbours                        |
 |                        -----   --------------------                        |
 |                          1               6                                 |
 |                          2               2                                 |
 +----------------------------------------------------------------------------+
 | Completeness relation is fully satisfied [Eq. (B1), PRB 56, 12847 (1997)]  |
 +----------------------------------------------------------------------------+
 |                  b_k Vectors (Ang^-1) and Weights (Ang^2)                  |
 |                  ----------------------------------------                  |
 |            No.         b_k(x)      b_k(y)      b_k(z)        w_b           |
 |            ---        --------------------------------     --------        |
 |             1         0.171162    0.098821    0.000000     8.533422        |
 |             2         0.000000   -0.197641    0.000000     8.533422        |
 |             3        -0.171162    0.098821    0.000000     8.533422        |
 |             4        -0.171162   -0.098821    0.000000     8.533422        |
 |             5         0.000000    0.197641    0.000000     8.533422        |
 |             6         0.171162   -0.098821    0.000000     8.533422        |
 |             7         0.000000    0.000000    0.314159     5.066059        |
 |             8         0.000000    0.000000   -0.314159     5.066059        |
 +----------------------------------------------------------------------------+
 |                           b_k Directions (Ang^-1)                          |
 |                           -----------------------                          |
 |            No.           x           y           z                         |
 |            ---        --------------------------------                     |
 |             1         0.171162    0.098821    0.000000                     |
 |             2         0.000000   -0.197641    0.000000                     |
 |             3        -0.171162    0.098821    0.000000                     |
 |             4         0.000000    0.000000    0.314159                     |
 +----------------------------------------------------------------------------+
  
 Time to get kmesh              0.165 (sec)
 *============================================================================*
 |                              MEMORY ESTIMATE                               |
 |         Maximum RAM allocated during each phase of the calculation         |
 *============================================================================*
 |                        Disentanglement           14.72 Mb                  |
 |                            Wannierise:            2.53 Mb                  |
 |                          plot_wannier:            2.53 Mb                  |
 *----------------------------------------------------------------------------*
  
 Starting a new Wannier90 calculation ...


 Reading overlaps from wannier90.mmn    : File generated by VASP: unknown system

 Reading projections from wannier90.amn : File generated by VASP: unknown system

 Time to read overlaps          0.706 (sec)

 *------------------------------- DISENTANGLE --------------------------------*
 +----------------------------------------------------------------------------+
 |                              Energy  Windows                               |
 |                              ---------------                               |
 |                   Outer:  -22.41786  to    9.00000  (eV)                   |
 |                   No frozen states were specified                          |
 +----------------------------------------------------------------------------+
   Number of target bands to extract:    5

                   Unitarised projection of Wannier functions                  
                   ------------------------------------------                  
   A_mn = <psi_m|g_n> --> S = A.A^+ --> U = S^-1/2.A
   In dis_project... done
   No inner window (linner = F)

                   Extraction of optimally-connected subspace                  
                   ------------------------------------------                  
 +---------------------------------------------------------------------+<-- DIS
 |  Iter     Omega_I(i-1)      Omega_I(i)      Delta (frac.)    Time   |<-- DIS
 +---------------------------------------------------------------------+<-- DIS
       1       4.74882797       4.40909203       7.705E-02      0.00    <-- DIS
       2       4.56461942       4.30135282       6.121E-02      0.00    <-- DIS
       3       4.42173478       4.21559112       4.890E-02      0.00    <-- DIS
       4       4.30934724       4.14394958       3.991E-02      0.00    <-- DIS
       5       4.21866690       4.08217716       3.344E-02      0.00    <-- DIS
       6       4.14341329       4.02767488       2.874E-02      0.01    <-- DIS
       7       4.07927517       3.97874771       2.527E-02      0.01    <-- DIS
       8       4.02332453       3.93423630       2.264E-02      0.01    <-- DIS
       9       3.97356416       3.89331608       2.061E-02      0.01    <-- DIS
      10       3.92861327       3.85538115       1.899E-02      0.01    <-- DIS
      11       3.88749876       3.81997398       1.768E-02      0.01    <-- DIS
      12       3.84951940       3.78674107       1.658E-02      0.01    <-- DIS
      13       3.81415795       3.75540397       1.565E-02      0.01    <-- DIS
      14       3.78102400       3.72573969       1.484E-02      0.01    <-- DIS
      15       3.74981643       3.69756707       1.413E-02      0.01    <-- DIS
      16       3.72029838       3.67073706       1.350E-02      0.02    <-- DIS
      17       3.69228019       3.64512561       1.294E-02      0.02    <-- DIS
      18       3.66560763       3.62062841       1.242E-02      0.02    <-- DIS
      19       3.64015350       3.59715690       1.195E-02      0.02    <-- DIS
      20       3.61581159       3.57463520       1.152E-02      0.02    <-- DIS
      21       3.59249221       3.55299776       1.112E-02      0.02    <-- DIS
      22       3.57011885       3.53218750       1.074E-02      0.02    <-- DIS
      23       3.54862564       3.51215432       1.038E-02      0.02    <-- DIS
      24       3.52795533       3.49285395       1.005E-02      0.02    <-- DIS
      25       3.50805783       3.47424698       9.732E-03      0.02    <-- DIS
      26       3.48888889       3.45629812       9.429E-03      0.03    <-- DIS
      27       3.47040921       3.43897555       9.140E-03      0.03    <-- DIS
      28       3.45258362       3.42225042       8.864E-03      0.03    <-- DIS
      29       3.43538043       3.40609643       8.598E-03      0.03    <-- DIS
      30       3.41877094       3.39048947       8.341E-03      0.03    <-- DIS
      31       3.40272897       3.37540731       8.094E-03      0.03    <-- DIS
      32       3.38723055       3.36082940       7.856E-03      0.03    <-- DIS
      33       3.37225360       3.34673661       7.624E-03      0.03    <-- DIS
      34       3.35777767       3.33311109       7.400E-03      0.03    <-- DIS
      35       3.34378377       3.31993609       7.183E-03      0.03    <-- DIS
      36       3.33025413       3.30719586       6.972E-03      0.04    <-- DIS
      37       3.31717213       3.29487553       6.767E-03      0.04    <-- DIS
      38       3.30452212       3.28296101       6.568E-03      0.04    <-- DIS
      39       3.29228931       3.27143892       6.373E-03      0.04    <-- DIS
      40       3.28045971       3.26029650       6.184E-03      0.04    <-- DIS
      41       3.26902000       3.24952158       6.000E-03      0.04    <-- DIS
      42       3.25795752       3.23910251       5.821E-03      0.04    <-- DIS
      43       3.24726017       3.22902810       5.646E-03      0.04    <-- DIS
      44       3.23691636       3.21928761       5.476E-03      0.04    <-- DIS
      45       3.22691496       3.20987068       5.310E-03      0.04    <-- DIS
      46       3.21724530       3.20076734       5.148E-03      0.05    <-- DIS
      47       3.20789709       3.19196796       4.990E-03      0.05    <-- DIS
      48       3.19886041       3.18346323       4.837E-03      0.05    <-- DIS
      49       3.19012568       3.17524412       4.687E-03      0.05    <-- DIS
      50       3.18168364       3.16730190       4.541E-03      0.05    <-- DIS
      51       3.17352532       3.15962811       4.398E-03      0.05    <-- DIS
      52       3.16564205       3.15221453       4.260E-03      0.05    <-- DIS
      53       3.15802539       3.14505318       4.125E-03      0.05    <-- DIS
      54       3.15066718       3.13813631       3.993E-03      0.05    <-- DIS
      55       3.14355949       3.13145638       3.865E-03      0.05    <-- DIS
      56       3.13669461       3.12500608       3.740E-03      0.06    <-- DIS
      57       3.13006505       3.11877828       3.619E-03      0.06    <-- DIS
      58       3.12366353       3.11276606       3.501E-03      0.06    <-- DIS
      59       3.11748297       3.10696268       3.386E-03      0.06    <-- DIS
      60       3.11151649       3.10136157       3.274E-03      0.06    <-- DIS
      61       3.10575737       3.09595637       3.166E-03      0.06    <-- DIS
      62       3.10019912       3.09074087       3.060E-03      0.06    <-- DIS
      63       3.09483539       3.08570903       2.958E-03      0.06    <-- DIS
      64       3.08966000       3.08085497       2.858E-03      0.06    <-- DIS
      65       3.08466696       3.07617297       2.761E-03      0.06    <-- DIS
      66       3.07985042       3.07165748       2.667E-03      0.07    <-- DIS
      67       3.07520472       3.06730310       2.576E-03      0.07    <-- DIS
      68       3.07072431       3.06310456       2.488E-03      0.07    <-- DIS
      69       3.06640384       3.05905675       2.402E-03      0.07    <-- DIS
      70       3.06223807       3.05515471       2.318E-03      0.07    <-- DIS
      71       3.05822193       3.05139360       2.238E-03      0.07    <-- DIS
      72       3.05435048       3.04776873       2.160E-03      0.07    <-- DIS
      73       3.05061892       3.04427556       2.084E-03      0.07    <-- DIS
      74       3.04702260       3.04090964       2.010E-03      0.07    <-- DIS
      75       3.04355698       3.03766668       1.939E-03      0.07    <-- DIS
      76       3.04021767       3.03454251       1.870E-03      0.08    <-- DIS
      77       3.03700039       3.03153308       1.803E-03      0.08    <-- DIS
      78       3.03390101       3.02863446       1.739E-03      0.08    <-- DIS
      79       3.03091551       3.02584285       1.676E-03      0.08    <-- DIS
      80       3.02803997       3.02315453       1.616E-03      0.08    <-- DIS
      81       3.02527062       3.02056594       1.558E-03      0.08    <-- DIS
      82       3.02260379       3.01807360       1.501E-03      0.08    <-- DIS
      83       3.02003591       3.01567413       1.446E-03      0.08    <-- DIS
      84       3.01756355       3.01336429       1.394E-03      0.08    <-- DIS
      85       3.01518335       3.01114091       1.342E-03      0.08    <-- DIS
      86       3.01289207       3.00900093       1.293E-03      0.08    <-- DIS
      87       3.01068659       3.00694138       1.246E-03      0.09    <-- DIS
      88       3.00856386       3.00495941       1.200E-03      0.09    <-- DIS
      89       3.00652095       3.00305224       1.155E-03      0.09    <-- DIS
      90       3.00455500       3.00121718       1.112E-03      0.09    <-- DIS
      91       3.00266327       2.99945164       1.071E-03      0.09    <-- DIS
      92       3.00084308       2.99775310       1.031E-03      0.09    <-- DIS
      93       2.99909187       2.99611914       9.922E-04      0.09    <-- DIS
      94       2.99740713       2.99454741       9.550E-04      0.09    <-- DIS
      95       2.99578646       2.99303564       9.191E-04      0.09    <-- DIS
      96       2.99422753       2.99158163       8.844E-04      0.09    <-- DIS
      97       2.99272808       2.99018328       8.511E-04      0.10    <-- DIS
      98       2.99128594       2.98883852       8.189E-04      0.10    <-- DIS
      99       2.98989901       2.98754540       7.878E-04      0.10    <-- DIS
     100       2.98856525       2.98630199       7.579E-04      0.10    <-- DIS
     101       2.98728271       2.98510645       7.290E-04      0.10    <-- DIS
     102       2.98604949       2.98395701       7.012E-04      0.10    <-- DIS
     103       2.98486376       2.98285195       6.745E-04      0.10    <-- DIS
     104       2.98372375       2.98178961       6.487E-04      0.10    <-- DIS
     105       2.98262777       2.98076839       6.238E-04      0.10    <-- DIS
     106       2.98157416       2.97978675       5.998E-04      0.10    <-- DIS
     107       2.98056135       2.97884321       5.768E-04      0.11    <-- DIS
     108       2.97958779       2.97793633       5.546E-04      0.11    <-- DIS
     109       2.97865203       2.97706472       5.332E-04      0.11    <-- DIS
     110       2.97775263       2.97622705       5.126E-04      0.11    <-- DIS
     111       2.97688821       2.97542204       4.928E-04      0.11    <-- DIS
     112       2.97605747       2.97464845       4.737E-04      0.11    <-- DIS
     113       2.97525911       2.97390508       4.553E-04      0.11    <-- DIS
     114       2.97449192       2.97319078       4.376E-04      0.11    <-- DIS
     115       2.97375470       2.97250444       4.206E-04      0.11    <-- DIS
     116       2.97304632       2.97184500       4.042E-04      0.11    <-- DIS
     117       2.97236567       2.97121142       3.885E-04      0.12    <-- DIS
     118       2.97171169       2.97060271       3.733E-04      0.12    <-- DIS
     119       2.97108337       2.97001791       3.587E-04      0.12    <-- DIS
     120       2.97047971       2.96945612       3.447E-04      0.12    <-- DIS
     121       2.96989978       2.96891643       3.312E-04      0.12    <-- DIS
     122       2.96934265       2.96839801       3.182E-04      0.12    <-- DIS
     123       2.96880745       2.96790002       3.058E-04      0.12    <-- DIS
     124       2.96829334       2.96742167       2.937E-04      0.12    <-- DIS
     125       2.96779950       2.96696222       2.822E-04      0.12    <-- DIS
     126       2.96732514       2.96652092       2.711E-04      0.12    <-- DIS
     127       2.96686951       2.96609707       2.604E-04      0.13    <-- DIS
     128       2.96643189       2.96568998       2.502E-04      0.13    <-- DIS
     129       2.96601157       2.96529902       2.403E-04      0.13    <-- DIS
     130       2.96560789       2.96492355       2.308E-04      0.13    <-- DIS
     131       2.96522019       2.96456297       2.217E-04      0.13    <-- DIS
     132       2.96484786       2.96421669       2.129E-04      0.13    <-- DIS
     133       2.96449028       2.96388415       2.045E-04      0.13    <-- DIS
     134       2.96414690       2.96356483       1.964E-04      0.13    <-- DIS
     135       2.96381715       2.96325820       1.886E-04      0.13    <-- DIS
     136       2.96350049       2.96296376       1.811E-04      0.13    <-- DIS
     137       2.96319643       2.96268104       1.740E-04      0.13    <-- DIS
     138       2.96290445       2.96240957       1.671E-04      0.14    <-- DIS
     139       2.96262410       2.96214891       1.604E-04      0.14    <-- DIS
     140       2.96235491       2.96189865       1.540E-04      0.14    <-- DIS
     141       2.96209644       2.96165836       1.479E-04      0.14    <-- DIS
     142       2.96184827       2.96142766       1.420E-04      0.14    <-- DIS
     143       2.96160999       2.96120617       1.364E-04      0.14    <-- DIS
     144       2.96138123       2.96099352       1.309E-04      0.14    <-- DIS
     145       2.96116159       2.96078936       1.257E-04      0.14    <-- DIS
     146       2.96095073       2.96059337       1.207E-04      0.14    <-- DIS
     147       2.96074829       2.96040521       1.159E-04      0.14    <-- DIS
     148       2.96055394       2.96022458       1.113E-04      0.15    <-- DIS
     149       2.96036736       2.96005117       1.068E-04      0.15    <-- DIS
     150       2.96018825       2.95988471       1.025E-04      0.15    <-- DIS
     151       2.96001630       2.95972492       9.845E-05      0.15    <-- DIS
     152       2.95985124       2.95957152       9.451E-05      0.15    <-- DIS
     153       2.95969279       2.95942428       9.073E-05      0.15    <-- DIS
     154       2.95954069       2.95928294       8.710E-05      0.15    <-- DIS
     155       2.95939468       2.95914727       8.361E-05      0.15    <-- DIS
     156       2.95925453       2.95901704       8.026E-05      0.15    <-- DIS
     157       2.95912000       2.95889203       7.704E-05      0.15    <-- DIS
     158       2.95899086       2.95877205       7.395E-05      0.16    <-- DIS
     159       2.95886691       2.95865689       7.099E-05      0.16    <-- DIS
     160       2.95874794       2.95854635       6.814E-05      0.16    <-- DIS
     161       2.95863375       2.95844025       6.540E-05      0.16    <-- DIS
     162       2.95852414       2.95833842       6.278E-05      0.16    <-- DIS
     163       2.95841894       2.95824069       6.026E-05      0.16    <-- DIS
     164       2.95831797       2.95814688       5.784E-05      0.16    <-- DIS
     165       2.95822106       2.95805685       5.551E-05      0.16    <-- DIS
     166       2.95812804       2.95797044       5.328E-05      0.16    <-- DIS
     167       2.95803877       2.95788751       5.114E-05      0.16    <-- DIS
     168       2.95795309       2.95780793       4.908E-05      0.17    <-- DIS
     169       2.95787086       2.95773154       4.710E-05      0.17    <-- DIS
     170       2.95779194       2.95765823       4.521E-05      0.17    <-- DIS
     171       2.95771620       2.95758788       4.339E-05      0.17    <-- DIS
     172       2.95764352       2.95752036       4.164E-05      0.17    <-- DIS
     173       2.95757376       2.95745557       3.996E-05      0.17    <-- DIS
     174       2.95750681       2.95739338       3.835E-05      0.17    <-- DIS
     175       2.95744256       2.95733371       3.681E-05      0.17    <-- DIS
     176       2.95738090       2.95727644       3.532E-05      0.17    <-- DIS
     177       2.95732173       2.95722148       3.390E-05      0.17    <-- DIS
     178       2.95726495       2.95716875       3.253E-05      0.18    <-- DIS
     179       2.95721046       2.95711814       3.122E-05      0.18    <-- DIS
     180       2.95715816       2.95706957       2.996E-05      0.18    <-- DIS
     181       2.95710798       2.95702296       2.875E-05      0.18    <-- DIS
     182       2.95705982       2.95697824       2.759E-05      0.18    <-- DIS
     183       2.95701361       2.95693532       2.648E-05      0.18    <-- DIS
     184       2.95696927       2.95689414       2.541E-05      0.18    <-- DIS
     185       2.95692671       2.95685462       2.438E-05      0.18    <-- DIS
     186       2.95688588       2.95681670       2.340E-05      0.18    <-- DIS
     187       2.95684669       2.95678031       2.245E-05      0.18    <-- DIS
     188       2.95680909       2.95674539       2.154E-05      0.19    <-- DIS
     189       2.95677301       2.95671189       2.067E-05      0.19    <-- DIS
     190       2.95673839       2.95667974       1.984E-05      0.19    <-- DIS
     191       2.95670517       2.95664889       1.903E-05      0.19    <-- DIS
     192       2.95667329       2.95661929       1.827E-05      0.19    <-- DIS
     193       2.95664270       2.95659088       1.753E-05      0.19    <-- DIS
     194       2.95661335       2.95656363       1.682E-05      0.19    <-- DIS
     195       2.95658519       2.95653748       1.614E-05      0.19    <-- DIS
     196       2.95655816       2.95651238       1.548E-05      0.19    <-- DIS
     197       2.95653223       2.95648831       1.486E-05      0.19    <-- DIS
     198       2.95650735       2.95646521       1.426E-05      0.19    <-- DIS
     199       2.95648348       2.95644304       1.368E-05      0.20    <-- DIS
     200       2.95646057       2.95642177       1.313E-05      0.20    <-- DIS
     201       2.95643859       2.95640136       1.259E-05      0.20    <-- DIS
     202       2.95641750       2.95638178       1.208E-05      0.20    <-- DIS
     203       2.95639727       2.95636299       1.159E-05      0.20    <-- DIS
     204       2.95637785       2.95634497       1.112E-05      0.20    <-- DIS
     205       2.95635923       2.95632767       1.067E-05      0.20    <-- DIS
     206       2.95634135       2.95631107       1.024E-05      0.20    <-- DIS
     207       2.95632420       2.95629515       9.827E-06      0.20    <-- DIS
     208       2.95630775       2.95627987       9.428E-06      0.20    <-- DIS
     209       2.95629196       2.95626522       9.046E-06      0.21    <-- DIS
     210       2.95627681       2.95625115       8.680E-06      0.21    <-- DIS
     211       2.95626228       2.95623766       8.328E-06      0.21    <-- DIS
     212       2.95624833       2.95622471       7.990E-06      0.21    <-- DIS
     213       2.95623495       2.95621229       7.666E-06      0.21    <-- DIS
     214       2.95622212       2.95620037       7.355E-06      0.21    <-- DIS
     215       2.95620980       2.95618894       7.057E-06      0.21    <-- DIS
     216       2.95619799       2.95617797       6.771E-06      0.21    <-- DIS
     217       2.95618665       2.95616744       6.496E-06      0.21    <-- DIS
     218       2.95617577       2.95615735       6.233E-06      0.21    <-- DIS
     219       2.95616533       2.95614766       5.980E-06      0.22    <-- DIS
     220       2.95615532       2.95613836       5.737E-06      0.22    <-- DIS
     221       2.95614572       2.95612944       5.505E-06      0.22    <-- DIS
     222       2.95613650       2.95612089       5.281E-06      0.22    <-- DIS
     223       2.95612766       2.95611268       5.067E-06      0.22    <-- DIS
     224       2.95611917       2.95610480       4.861E-06      0.22    <-- DIS
     225       2.95611103       2.95609725       4.664E-06      0.22    <-- DIS
     226       2.95610322       2.95609000       4.475E-06      0.22    <-- DIS
     227       2.95609573       2.95608304       4.293E-06      0.22    <-- DIS
     228       2.95608854       2.95607637       4.119E-06      0.22    <-- DIS
     229       2.95608165       2.95606997       3.952E-06      0.23    <-- DIS
     230       2.95607503       2.95606382       3.791E-06      0.23    <-- DIS
     231       2.95606868       2.95605793       3.637E-06      0.23    <-- DIS
     232       2.95606259       2.95605228       3.490E-06      0.23    <-- DIS
     233       2.95605675       2.95604685       3.348E-06      0.23    <-- DIS
     234       2.95605115       2.95604165       3.212E-06      0.23    <-- DIS
     235       2.95604577       2.95603666       3.081E-06      0.23    <-- DIS
     236       2.95604061       2.95603187       2.956E-06      0.23    <-- DIS
     237       2.95603566       2.95602728       2.836E-06      0.23    <-- DIS
     238       2.95603091       2.95602287       2.721E-06      0.23    <-- DIS
     239       2.95602635       2.95601864       2.610E-06      0.24    <-- DIS
     240       2.95602198       2.95601458       2.504E-06      0.24    <-- DIS
     241       2.95601779       2.95601069       2.403E-06      0.24    <-- DIS
     242       2.95601377       2.95600695       2.305E-06      0.24    <-- DIS
     243       2.95600991       2.95600337       2.211E-06      0.24    <-- DIS
     244       2.95600621       2.95599993       2.122E-06      0.24    <-- DIS
     245       2.95600265       2.95599664       2.035E-06      0.24    <-- DIS
     246       2.95599925       2.95599347       1.953E-06      0.24    <-- DIS
     247       2.95599598       2.95599044       1.873E-06      0.24    <-- DIS
     248       2.95599284       2.95598753       1.797E-06      0.24    <-- DIS
     249       2.95598983       2.95598473       1.724E-06      0.24    <-- DIS
     250       2.95598694       2.95598205       1.654E-06      0.25    <-- DIS
     251       2.95598417       2.95597948       1.587E-06      0.25    <-- DIS
     252       2.95598152       2.95597702       1.522E-06      0.25    <-- DIS
     253       2.95597897       2.95597465       1.461E-06      0.25    <-- DIS
     254       2.95597652       2.95597238       1.401E-06      0.25    <-- DIS
     255       2.95597418       2.95597020       1.344E-06      0.25    <-- DIS
     256       2.95597193       2.95596811       1.290E-06      0.25    <-- DIS
     257       2.95596977       2.95596611       1.237E-06      0.25    <-- DIS
     258       2.95596770       2.95596419       1.187E-06      0.25    <-- DIS
     259       2.95596571       2.95596234       1.139E-06      0.25    <-- DIS
     260       2.95596380       2.95596057       1.092E-06      0.26    <-- DIS
     261       2.95596197       2.95595888       1.048E-06      0.26    <-- DIS
     262       2.95596022       2.95595725       1.005E-06      0.26    <-- DIS
     263       2.95595854       2.95595569       9.644E-07      0.26    <-- DIS
     264       2.95595692       2.95595419       9.252E-07      0.26    <-- DIS
     265       2.95595537       2.95595275       8.876E-07      0.26    <-- DIS
     266       2.95595389       2.95595137       8.515E-07      0.26    <-- DIS
     267       2.95595246       2.95595005       8.169E-07      0.26    <-- DIS
     268       2.95595109       2.95594878       7.837E-07      0.26    <-- DIS
     269       2.95594978       2.95594756       7.518E-07      0.26    <-- DIS
     270       2.95594852       2.95594639       7.212E-07      0.27    <-- DIS
     271       2.95594732       2.95594527       6.919E-07      0.27    <-- DIS
     272       2.95594616       2.95594419       6.638E-07      0.27    <-- DIS
     273       2.95594505       2.95594316       6.368E-07      0.27    <-- DIS
     274       2.95594398       2.95594217       6.109E-07      0.27    <-- DIS
     275       2.95594296       2.95594122       5.860E-07      0.27    <-- DIS
     276       2.95594198       2.95594031       5.622E-07      0.27    <-- DIS
     277       2.95594103       2.95593944       5.393E-07      0.27    <-- DIS
     278       2.95594013       2.95593860       5.174E-07      0.27    <-- DIS
     279       2.95593927       2.95593780       4.964E-07      0.27    <-- DIS
     280       2.95593843       2.95593703       4.762E-07      0.28    <-- DIS
     281       2.95593764       2.95593629       4.568E-07      0.28    <-- DIS
     282       2.95593687       2.95593558       4.382E-07      0.28    <-- DIS
     283       2.95593614       2.95593490       4.204E-07      0.28    <-- DIS
     284       2.95593543       2.95593424       4.033E-07      0.28    <-- DIS
     285       2.95593476       2.95593362       3.869E-07      0.28    <-- DIS
     286       2.95593411       2.95593301       3.711E-07      0.28    <-- DIS
     287       2.95593349       2.95593244       3.561E-07      0.28    <-- DIS
     288       2.95593289       2.95593188       3.416E-07      0.28    <-- DIS
     289       2.95593232       2.95593135       3.277E-07      0.28    <-- DIS
     290       2.95593177       2.95593084       3.143E-07      0.29    <-- DIS
     291       2.95593125       2.95593036       3.016E-07      0.29    <-- DIS
     292       2.95593074       2.95592989       2.893E-07      0.29    <-- DIS
     293       2.95593026       2.95592944       2.775E-07      0.29    <-- DIS
     294       2.95592979       2.95592901       2.662E-07      0.29    <-- DIS
     295       2.95592935       2.95592859       2.554E-07      0.29    <-- DIS
     296       2.95592892       2.95592820       2.450E-07      0.29    <-- DIS
     297       2.95592851       2.95592782       2.350E-07      0.29    <-- DIS
     298       2.95592812       2.95592745       2.255E-07      0.29    <-- DIS
     299       2.95592774       2.95592710       2.163E-07      0.29    <-- DIS
     300       2.95592738       2.95592676       2.075E-07      0.29    <-- DIS
     301       2.95592703       2.95592644       1.991E-07      0.30    <-- DIS
     302       2.95592670       2.95592613       1.910E-07      0.30    <-- DIS
     303       2.95592638       2.95592583       1.832E-07      0.30    <-- DIS
     304       2.95592607       2.95592555       1.757E-07      0.30    <-- DIS
     305       2.95592578       2.95592528       1.686E-07      0.30    <-- DIS
     306       2.95592549       2.95592502       1.617E-07      0.30    <-- DIS
     307       2.95592522       2.95592476       1.551E-07      0.30    <-- DIS
     308       2.95592496       2.95592452       1.488E-07      0.30    <-- DIS
     309       2.95592471       2.95592429       1.428E-07      0.30    <-- DIS
     310       2.95592447       2.95592407       1.370E-07      0.30    <-- DIS
     311       2.95592425       2.95592386       1.314E-07      0.31    <-- DIS
     312       2.95592403       2.95592365       1.261E-07      0.31    <-- DIS
     313       2.95592381       2.95592346       1.209E-07      0.31    <-- DIS
     314       2.95592361       2.95592327       1.160E-07      0.31    <-- DIS
     315       2.95592342       2.95592309       1.113E-07      0.31    <-- DIS
     316       2.95592323       2.95592292       1.068E-07      0.31    <-- DIS
     317       2.95592305       2.95592275       1.024E-07      0.31    <-- DIS
     318       2.95592288       2.95592259       9.824E-08      0.31    <-- DIS
     319       2.95592272       2.95592244       9.424E-08      0.31    <-- DIS
     320       2.95592256       2.95592229       9.041E-08      0.31    <-- DIS
     321       2.95592241       2.95592215       8.673E-08      0.32    <-- DIS
     322       2.95592226       2.95592202       8.320E-08      0.32    <-- DIS
     323       2.95592212       2.95592189       7.982E-08      0.32    <-- DIS
     324       2.95592199       2.95592176       7.657E-08      0.32    <-- DIS
     325       2.95592186       2.95592164       7.345E-08      0.32    <-- DIS
     326       2.95592174       2.95592153       7.046E-08      0.32    <-- DIS
     327       2.95592162       2.95592142       6.760E-08      0.32    <-- DIS
     328       2.95592151       2.95592132       6.484E-08      0.32    <-- DIS
     329       2.95592140       2.95592121       6.221E-08      0.32    <-- DIS
     330       2.95592129       2.95592112       5.967E-08      0.32    <-- DIS
     331       2.95592119       2.95592103       5.725E-08      0.33    <-- DIS
     332       2.95592110       2.95592094       5.492E-08      0.33    <-- DIS
     333       2.95592101       2.95592085       5.268E-08      0.33    <-- DIS
     334       2.95592092       2.95592077       5.054E-08      0.33    <-- DIS
     335       2.95592083       2.95592069       4.848E-08      0.33    <-- DIS
     336       2.95592075       2.95592062       4.651E-08      0.33    <-- DIS
     337       2.95592067       2.95592054       4.462E-08      0.33    <-- DIS
     338       2.95592060       2.95592047       4.280E-08      0.33    <-- DIS
     339       2.95592053       2.95592041       4.106E-08      0.33    <-- DIS
     340       2.95592046       2.95592034       3.939E-08      0.33    <-- DIS
     341       2.95592039       2.95592028       3.778E-08      0.34    <-- DIS
     342       2.95592033       2.95592022       3.625E-08      0.34    <-- DIS
     343       2.95592027       2.95592017       3.477E-08      0.34    <-- DIS
     344       2.95592021       2.95592011       3.336E-08      0.34    <-- DIS
     345       2.95592016       2.95592006       3.200E-08      0.34    <-- DIS
     346       2.95592010       2.95592001       3.070E-08      0.34    <-- DIS
     347       2.95592005       2.95591996       2.945E-08      0.34    <-- DIS
     348       2.95592000       2.95591992       2.825E-08      0.34    <-- DIS
     349       2.95591995       2.95591987       2.710E-08      0.34    <-- DIS
     350       2.95591991       2.95591983       2.600E-08      0.34    <-- DIS
     351       2.95591987       2.95591979       2.494E-08      0.34    <-- DIS
     352       2.95591982       2.95591975       2.392E-08      0.35    <-- DIS
     353       2.95591978       2.95591972       2.295E-08      0.35    <-- DIS
     354       2.95591975       2.95591968       2.202E-08      0.35    <-- DIS
     355       2.95591971       2.95591965       2.112E-08      0.35    <-- DIS
     356       2.95591967       2.95591961       2.026E-08      0.35    <-- DIS
     357       2.95591964       2.95591958       1.944E-08      0.35    <-- DIS
     358       2.95591961       2.95591955       1.864E-08      0.35    <-- DIS
     359       2.95591958       2.95591952       1.789E-08      0.35    <-- DIS
     360       2.95591955       2.95591949       1.716E-08      0.35    <-- DIS
     361       2.95591952       2.95591947       1.646E-08      0.35    <-- DIS
     362       2.95591949       2.95591944       1.579E-08      0.36    <-- DIS
     363       2.95591946       2.95591942       1.515E-08      0.36    <-- DIS
     364       2.95591944       2.95591939       1.453E-08      0.36    <-- DIS
     365       2.95591941       2.95591937       1.394E-08      0.36    <-- DIS
     366       2.95591939       2.95591935       1.337E-08      0.36    <-- DIS
     367       2.95591937       2.95591933       1.283E-08      0.36    <-- DIS
     368       2.95591935       2.95591931       1.231E-08      0.36    <-- DIS
     369       2.95591932       2.95591929       1.181E-08      0.36    <-- DIS
     370       2.95591931       2.95591927       1.132E-08      0.36    <-- DIS
     371       2.95591929       2.95591925       1.086E-08      0.36    <-- DIS
     372       2.95591927       2.95591924       1.042E-08      0.37    <-- DIS
     373       2.95591925       2.95591922       9.998E-09      0.37    <-- DIS
     374       2.95591923       2.95591921       9.591E-09      0.37    <-- DIS
     375       2.95591922       2.95591919       9.200E-09      0.37    <-- DIS
     376       2.95591920       2.95591918       8.826E-09      0.37    <-- DIS
     377       2.95591919       2.95591916       8.467E-09      0.37    <-- DIS
     378       2.95591917       2.95591915       8.122E-09      0.37    <-- DIS
     379       2.95591916       2.95591914       7.792E-09      0.37    <-- DIS
     380       2.95591915       2.95591912       7.474E-09      0.37    <-- DIS
     381       2.95591913       2.95591911       7.170E-09      0.37    <-- DIS
     382       2.95591912       2.95591910       6.878E-09      0.38    <-- DIS
     383       2.95591911       2.95591909       6.598E-09      0.38    <-- DIS
     384       2.95591910       2.95591908       6.330E-09      0.38    <-- DIS
     385       2.95591909       2.95591907       6.072E-09      0.38    <-- DIS
     386       2.95591908       2.95591906       5.825E-09      0.38    <-- DIS
     387       2.95591907       2.95591905       5.588E-09      0.38    <-- DIS
     388       2.95591906       2.95591904       5.361E-09      0.38    <-- DIS
     389       2.95591905       2.95591904       5.143E-09      0.38    <-- DIS
     390       2.95591904       2.95591903       4.933E-09      0.38    <-- DIS
     391       2.95591903       2.95591902       4.732E-09      0.38    <-- DIS
     392       2.95591903       2.95591901       4.540E-09      0.38    <-- DIS
     393       2.95591902       2.95591901       4.355E-09      0.39    <-- DIS
     394       2.95591901       2.95591900       4.178E-09      0.39    <-- DIS
     395       2.95591900       2.95591899       4.008E-09      0.39    <-- DIS
     396       2.95591900       2.95591899       3.845E-09      0.39    <-- DIS
     397       2.95591899       2.95591898       3.688E-09      0.39    <-- DIS
     398       2.95591898       2.95591897       3.538E-09      0.39    <-- DIS
     399       2.95591898       2.95591897       3.394E-09      0.39    <-- DIS
     400       2.95591897       2.95591896       3.256E-09      0.39    <-- DIS
     401       2.95591897       2.95591896       3.123E-09      0.39    <-- DIS
     402       2.95591896       2.95591895       2.996E-09      0.39    <-- DIS
     403       2.95591896       2.95591895       2.874E-09      0.40    <-- DIS
     404       2.95591895       2.95591894       2.757E-09      0.40    <-- DIS
     405       2.95591895       2.95591894       2.645E-09      0.40    <-- DIS
     406       2.95591894       2.95591894       2.538E-09      0.40    <-- DIS
     407       2.95591894       2.95591893       2.434E-09      0.40    <-- DIS
     408       2.95591894       2.95591893       2.335E-09      0.40    <-- DIS
     409       2.95591893       2.95591892       2.240E-09      0.40    <-- DIS
     410       2.95591893       2.95591892       2.149E-09      0.40    <-- DIS
     411       2.95591892       2.95591892       2.062E-09      0.40    <-- DIS
     412       2.95591892       2.95591891       1.978E-09      0.40    <-- DIS
     413       2.95591892       2.95591891       1.897E-09      0.41    <-- DIS
     414       2.95591891       2.95591891       1.820E-09      0.41    <-- DIS
     415       2.95591891       2.95591891       1.746E-09      0.41    <-- DIS
     416       2.95591891       2.95591890       1.675E-09      0.41    <-- DIS
     417       2.95591891       2.95591890       1.607E-09      0.41    <-- DIS
     418       2.95591890       2.95591890       1.541E-09      0.41    <-- DIS
     419       2.95591890       2.95591890       1.479E-09      0.41    <-- DIS
     420       2.95591890       2.95591889       1.418E-09      0.41    <-- DIS
     421       2.95591890       2.95591889       1.361E-09      0.41    <-- DIS
     422       2.95591889       2.95591889       1.305E-09      0.41    <-- DIS
     423       2.95591889       2.95591889       1.252E-09      0.42    <-- DIS
     424       2.95591889       2.95591889       1.201E-09      0.42    <-- DIS
     425       2.95591889       2.95591888       1.152E-09      0.42    <-- DIS
     426       2.95591888       2.95591888       1.105E-09      0.42    <-- DIS
     427       2.95591888       2.95591888       1.060E-09      0.42    <-- DIS
     428       2.95591888       2.95591888       1.017E-09      0.42    <-- DIS
     429       2.95591888       2.95591888       9.759E-10      0.42    <-- DIS
     430       2.95591888       2.95591888       9.361E-10      0.42    <-- DIS
     431       2.95591888       2.95591887       8.980E-10      0.42    <-- DIS
     432       2.95591887       2.95591887       8.615E-10      0.42    <-- DIS
     433       2.95591887       2.95591887       8.264E-10      0.43    <-- DIS
     434       2.95591887       2.95591887       7.928E-10      0.43    <-- DIS
     435       2.95591887       2.95591887       7.605E-10      0.43    <-- DIS
     436       2.95591887       2.95591887       7.296E-10      0.43    <-- DIS
     437       2.95591887       2.95591887       6.999E-10      0.43    <-- DIS
     438       2.95591887       2.95591886       6.714E-10      0.43    <-- DIS
     439       2.95591887       2.95591886       6.441E-10      0.43    <-- DIS
     440       2.95591886       2.95591886       6.179E-10      0.43    <-- DIS
     441       2.95591886       2.95591886       5.927E-10      0.43    <-- DIS
     442       2.95591886       2.95591886       5.686E-10      0.43    <-- DIS
     443       2.95591886       2.95591886       5.455E-10      0.43    <-- DIS
     444       2.95591886       2.95591886       5.233E-10      0.44    <-- DIS
     445       2.95591886       2.95591886       5.020E-10      0.44    <-- DIS
     446       2.95591886       2.95591886       4.815E-10      0.44    <-- DIS
     447       2.95591886       2.95591886       4.619E-10      0.44    <-- DIS
     448       2.95591886       2.95591886       4.431E-10      0.44    <-- DIS
     449       2.95591886       2.95591886       4.251E-10      0.44    <-- DIS
     450       2.95591886       2.95591885       4.078E-10      0.44    <-- DIS
     451       2.95591886       2.95591885       3.912E-10      0.44    <-- DIS
     452       2.95591885       2.95591885       3.753E-10      0.44    <-- DIS
     453       2.95591885       2.95591885       3.600E-10      0.44    <-- DIS
     454       2.95591885       2.95591885       3.454E-10      0.45    <-- DIS
     455       2.95591885       2.95591885       3.313E-10      0.45    <-- DIS
     456       2.95591885       2.95591885       3.178E-10      0.45    <-- DIS
     457       2.95591885       2.95591885       3.049E-10      0.45    <-- DIS
     458       2.95591885       2.95591885       2.925E-10      0.45    <-- DIS
     459       2.95591885       2.95591885       2.806E-10      0.45    <-- DIS
     460       2.95591885       2.95591885       2.692E-10      0.45    <-- DIS
     461       2.95591885       2.95591885       2.582E-10      0.45    <-- DIS
     462       2.95591885       2.95591885       2.477E-10      0.45    <-- DIS
     463       2.95591885       2.95591885       2.376E-10      0.45    <-- DIS
     464       2.95591885       2.95591885       2.280E-10      0.46    <-- DIS
     465       2.95591885       2.95591885       2.187E-10      0.46    <-- DIS
     466       2.95591885       2.95591885       2.098E-10      0.46    <-- DIS
     467       2.95591885       2.95591885       2.012E-10      0.46    <-- DIS
     468       2.95591885       2.95591885       1.931E-10      0.46    <-- DIS
     469       2.95591885       2.95591885       1.852E-10      0.46    <-- DIS
     470       2.95591885       2.95591885       1.776E-10      0.46    <-- DIS
     471       2.95591885       2.95591885       1.704E-10      0.46    <-- DIS
     472       2.95591885       2.95591885       1.635E-10      0.46    <-- DIS
     473       2.95591885       2.95591885       1.568E-10      0.46    <-- DIS
     474       2.95591885       2.95591885       1.504E-10      0.47    <-- DIS
     475       2.95591885       2.95591884       1.443E-10      0.47    <-- DIS
     476       2.95591885       2.95591884       1.384E-10      0.47    <-- DIS
     477       2.95591884       2.95591884       1.328E-10      0.47    <-- DIS
     478       2.95591884       2.95591884       1.274E-10      0.47    <-- DIS
     479       2.95591884       2.95591884       1.222E-10      0.47    <-- DIS
     480       2.95591884       2.95591884       1.173E-10      0.47    <-- DIS
     481       2.95591884       2.95591884       1.125E-10      0.47    <-- DIS
     482       2.95591884       2.95591884       1.079E-10      0.47    <-- DIS
     483       2.95591884       2.95591884       1.035E-10      0.47    <-- DIS
     484       2.95591884       2.95591884       9.930E-11      0.47    <-- DIS
     485       2.95591884       2.95591884       9.526E-11      0.48    <-- DIS
     486       2.95591884       2.95591884       9.138E-11      0.48    <-- DIS

             <<<      Delta < 1.000E-10  over  3 iterations     >>>
             <<< Disentanglement convergence criteria satisfied >>>

        Final Omega_I     2.95591884 (Ang^2)

 +----------------------------------------------------------------------------+

 Time to disentangle bands      0.493 (sec)

 Writing checkpoint file wannier90.chk... done

 
 *------------------------------- WANNIERISE ---------------------------------*
 +--------------------------------------------------------------------+<-- CONV
 | Iter  Delta Spread     RMS Gradient      Spread (Ang^2)      Time  |<-- CONV
 +--------------------------------------------------------------------+<-- CONV
 
 ------------------------------------------------------------------------------
 Initial State
  WF centre and spread    1  (  0.000006,  0.000018,  9.999983 )     0.97264573
  WF centre and spread    2  (  1.223642,  0.706481, 10.000059 )     0.97265613
  WF centre and spread    3  (  0.611813,  0.353230, 10.000001 )     0.58080775
  WF centre and spread    4  (  1.223630,  1.412929, 10.000000 )     0.58080827
  WF centre and spread    5  (  1.835448,  0.353231, 10.000001 )     0.58080793
  Sum of centres and spreads (  4.894539,  2.825889, 50.000043 )     3.68772581
 
      0     0.369E+01     0.0000000000        3.6877257172       0.50  <-- CONV
        O_D=      0.0170061 O_OD=      0.7148008 O_TOT=      3.6877257 <-- SPRD
 ------------------------------------------------------------------------------
 Cycle:      1
  WF centre and spread    1  (  0.000006,  0.000018,  9.999984 )     0.97135314
  WF centre and spread    2  (  1.223642,  0.706481, 10.000063 )     0.97140138
  WF centre and spread    3  (  0.611813,  0.353230,  9.999999 )     0.57421905
  WF centre and spread    4  (  1.223630,  1.412929,  9.999998 )     0.57422031
  WF centre and spread    5  (  1.835448,  0.353231,  9.999999 )     0.57421353
  Sum of centres and spreads (  4.894539,  2.825890, 50.000043 )     3.66540740
 
      1    -0.223E-01     0.0851075360        3.6654073044       0.50  <-- CONV
        O_D=      0.0138727 O_OD=      0.6956157 O_TOT=      3.6654073 <-- SPRD
 Delta: O_D= -0.3133363E-02 O_OD= -0.1918505E-01 O_TOT= -0.2231841E-01 <-- DLTA
 ------------------------------------------------------------------------------
 Cycle:      2
  WF centre and spread    1  (  0.000006,  0.000018,  9.999985 )     0.97039601
  WF centre and spread    2  (  1.223642,  0.706481, 10.000064 )     0.97039954
  WF centre and spread    3  (  0.611813,  0.353230,  9.999998 )     0.57254575
  WF centre and spread    4  (  1.223630,  1.412929,  9.999997 )     0.57254766
  WF centre and spread    5  (  1.835448,  0.353230,  9.999998 )     0.57254623
  Sum of centres and spreads (  4.894539,  2.825889, 50.000043 )     3.65843520
 
      2    -0.697E-02     0.1031355893        3.6584351072       0.50  <-- CONV
        O_D=      0.0124610 O_OD=      0.6900553 O_TOT=      3.6584351 <-- SPRD
 Delta: O_D= -0.1411748E-02 O_OD= -0.5560449E-02 O_TOT= -0.6972197E-02 <-- DLTA
 ------------------------------------------------------------------------------
 Cycle:      3
  WF centre and spread    1  (  0.000006,  0.000018,  9.999985 )     0.97030169
  WF centre and spread    2  (  1.223643,  0.706481, 10.000066 )     0.97030528
  WF centre and spread    3  (  0.611813,  0.353230,  9.999998 )     0.57204665
  WF centre and spread    4  (  1.223630,  1.412929,  9.999997 )     0.57204793
  WF centre and spread    5  (  1.835448,  0.353230,  9.999998 )     0.57204683
  Sum of centres and spreads (  4.894539,  2.825889, 50.000043 )     3.65674838
 
      3    -0.169E-02     0.0401379560        3.6567482860       0.50  <-- CONV
        O_D=      0.0122864 O_OD=      0.6885431 O_TOT=      3.6567483 <-- SPRD
 Delta: O_D= -0.1745993E-03 O_OD= -0.1512222E-02 O_TOT= -0.1686821E-02 <-- DLTA
 ------------------------------------------------------------------------------
 Cycle:      4
  WF centre and spread    1  (  0.000006,  0.000018,  9.999986 )     0.97019563
  WF centre and spread    2  (  1.223642,  0.706481, 10.000067 )     0.97019711
  WF centre and spread    3  (  0.611813,  0.353230,  9.999997 )     0.57182885
  WF centre and spread    4  (  1.223630,  1.412929,  9.999996 )     0.57182938
  WF centre and spread    5  (  1.835448,  0.353231,  9.999997 )     0.57182885
  Sum of centres and spreads (  4.894539,  2.825889, 50.000043 )     3.65587983
 
      4    -0.869E-03     0.0285101472        3.6558797368       0.51  <-- CONV
        O_D=      0.0120965 O_OD=      0.6878644 O_TOT=      3.6558797 <-- SPRD
 Delta: O_D= -0.1898312E-03 O_OD= -0.6787180E-03 O_TOT= -0.8685492E-03 <-- DLTA
 ------------------------------------------------------------------------------
 Cycle:      5
  WF centre and spread    1  (  0.000006,  0.000018,  9.999986 )     0.97011153
  WF centre and spread    2  (  1.223642,  0.706481, 10.000069 )     0.97010989
  WF centre and spread    3  (  0.611813,  0.353230,  9.999997 )     0.57176668
  WF centre and spread    4  (  1.223630,  1.412929,  9.999996 )     0.57176706
  WF centre and spread    5  (  1.835448,  0.353230,  9.999996 )     0.57176669
  Sum of centres and spreads (  4.894539,  2.825889, 50.000043 )     3.65552184
 
      5    -0.358E-03     0.0201848572        3.6555217500       0.51  <-- CONV
        O_D=      0.0119427 O_OD=      0.6876602 O_TOT=      3.6555217 <-- SPRD
 Delta: O_D= -0.1538180E-03 O_OD= -0.2041688E-03 O_TOT= -0.3579869E-03 <-- DLTA
 ------------------------------------------------------------------------------
 Cycle:      6
  WF centre and spread    1  (  0.000006,  0.000018,  9.999986 )     0.97008726
  WF centre and spread    2  (  1.223642,  0.706481, 10.000070 )     0.97008549
  WF centre and spread    3  (  0.611813,  0.353230,  9.999996 )     0.57174439
  WF centre and spread    4  (  1.223630,  1.412929,  9.999995 )     0.57174484
  WF centre and spread    5  (  1.835448,  0.353230,  9.999996 )     0.57174449
  Sum of centres and spreads (  4.894539,  2.825889, 50.000043 )     3.65540647
 
      6    -0.115E-03     0.0111289893        3.6554063736       0.51  <-- CONV
        O_D=      0.0118975 O_OD=      0.6875900 O_TOT=      3.6554064 <-- SPRD
 Delta: O_D= -0.4520770E-04 O_OD= -0.7016864E-04 O_TOT= -0.1153763E-03 <-- DLTA
 ------------------------------------------------------------------------------
 Cycle:      7
  WF centre and spread    1  (  0.000006,  0.000018,  9.999987 )     0.97008339
  WF centre and spread    2  (  1.223642,  0.706481, 10.000071 )     0.97008130
  WF centre and spread    3  (  0.611813,  0.353230,  9.999996 )     0.57174061
  WF centre and spread    4  (  1.223630,  1.412929,  9.999995 )     0.57174100
  WF centre and spread    5  (  1.835448,  0.353230,  9.999995 )     0.57174069
  Sum of centres and spreads (  4.894539,  2.825889, 50.000043 )     3.65538700
 
      7    -0.195E-04     0.0053624685        3.6553869075       0.51  <-- CONV
        O_D=      0.0118906 O_OD=      0.6875775 O_TOT=      3.6553869 <-- SPRD
 Delta: O_D= -0.6951970E-05 O_OD= -0.1251420E-04 O_TOT= -0.1946617E-04 <-- DLTA
 ------------------------------------------------------------------------------
 Cycle:      8
  WF centre and spread    1  (  0.000006,  0.000018,  9.999987 )     0.97008156
  WF centre and spread    2  (  1.223642,  0.706481, 10.000072 )     0.97007954
  WF centre and spread    3  (  0.611813,  0.353230,  9.999995 )     0.57173886
  WF centre and spread    4  (  1.223630,  1.412929,  9.999994 )     0.57173925
  WF centre and spread    5  (  1.835448,  0.353230,  9.999995 )     0.57173894
  Sum of centres and spreads (  4.894539,  2.825889, 50.000043 )     3.65537816
 
      8    -0.884E-05     0.0030394232        3.6553780641       0.51  <-- CONV
        O_D=      0.0118872 O_OD=      0.6875720 O_TOT=      3.6553781 <-- SPRD
 Delta: O_D= -0.3324507E-05 O_OD= -0.5518902E-05 O_TOT= -0.8843409E-05 <-- DLTA
 ------------------------------------------------------------------------------
 Cycle:      9
  WF centre and spread    1  (  0.000006,  0.000018,  9.999987 )     0.97008076
  WF centre and spread    2  (  1.223642,  0.706481, 10.000073 )     0.97007873
  WF centre and spread    3  (  0.611813,  0.353230,  9.999995 )     0.57173846
  WF centre and spread    4  (  1.223630,  1.412929,  9.999994 )     0.57173886
  WF centre and spread    5  (  1.835448,  0.353230,  9.999994 )     0.57173854
  Sum of centres and spreads (  4.894539,  2.825889, 50.000044 )     3.65537536
 
      9    -0.280E-05     0.0018375035        3.6553752630       0.51  <-- CONV
        O_D=      0.0118858 O_OD=      0.6875706 O_TOT=      3.6553753 <-- SPRD
 Delta: O_D= -0.1429291E-05 O_OD= -0.1371719E-05 O_TOT= -0.2801010E-05 <-- DLTA
 ------------------------------------------------------------------------------
 Cycle:     10
  WF centre and spread    1  (  0.000006,  0.000018,  9.999988 )     0.97008055
  WF centre and spread    2  (  1.223642,  0.706481, 10.000074 )     0.97007844
  WF centre and spread    3  (  0.611813,  0.353230,  9.999995 )     0.57173839
  WF centre and spread    4  (  1.223630,  1.412929,  9.999993 )     0.57173879
  WF centre and spread    5  (  1.835448,  0.353230,  9.999994 )     0.57173846
  Sum of centres and spreads (  4.894539,  2.825889, 50.000044 )     3.65537462
 
     10    -0.735E-06     0.0009276004        3.6553745280       0.51  <-- CONV
        O_D=      0.0118853 O_OD=      0.6875703 O_TOT=      3.6553745 <-- SPRD
 Delta: O_D= -0.4596288E-06 O_OD= -0.2754237E-06 O_TOT= -0.7350525E-06 <-- DLTA
 ------------------------------------------------------------------------------
 Cycle:     11
  WF centre and spread    1  (  0.000006,  0.000018,  9.999988 )     0.97008051
  WF centre and spread    2  (  1.223643,  0.706481, 10.000075 )     0.97007837
  WF centre and spread    3  (  0.611813,  0.353230,  9.999994 )     0.57173834
  WF centre and spread    4  (  1.223630,  1.412929,  9.999993 )     0.57173874
  WF centre and spread    5  (  1.835448,  0.353230,  9.999994 )     0.57173841
  Sum of centres and spreads (  4.894539,  2.825889, 50.000044 )     3.65537438
 
     11    -0.243E-06     0.0004920671        3.6553742848       0.51  <-- CONV
        O_D=      0.0118852 O_OD=      0.6875702 O_TOT=      3.6553743 <-- SPRD
 Delta: O_D= -0.1024532E-06 O_OD= -0.1407667E-06 O_TOT= -0.2432198E-06 <-- DLTA
 ------------------------------------------------------------------------------
 Cycle:     12
  WF centre and spread    1  (  0.000006,  0.000018,  9.999989 )     0.97008050
  WF centre and spread    2  (  1.223643,  0.706481, 10.000076 )     0.97007835
  WF centre and spread    3  (  0.611813,  0.353230,  9.999994 )     0.57173832
  WF centre and spread    4  (  1.223630,  1.412929,  9.999992 )     0.57173871
  WF centre and spread    5  (  1.835448,  0.353230,  9.999993 )     0.57173838
  Sum of centres and spreads (  4.894539,  2.825889, 50.000044 )     3.65537425
 
     12    -0.127E-06     0.0003594759        3.6553741580       0.51  <-- CONV
        O_D=      0.0118852 O_OD=      0.6875701 O_TOT=      3.6553742 <-- SPRD
 Delta: O_D= -0.2835626E-07 O_OD= -0.9839800E-07 O_TOT= -0.1267543E-06 <-- DLTA
 ------------------------------------------------------------------------------
 Cycle:     13
  WF centre and spread    1  (  0.000006,  0.000018,  9.999989 )     0.97008050
  WF centre and spread    2  (  1.223643,  0.706481, 10.000077 )     0.97007834
  WF centre and spread    3  (  0.611813,  0.353230,  9.999993 )     0.57173831
  WF centre and spread    4  (  1.223630,  1.412929,  9.999992 )     0.57173870
  WF centre and spread    5  (  1.835448,  0.353230,  9.999993 )     0.57173837
  Sum of centres and spreads (  4.894539,  2.825889, 50.000044 )     3.65537422
 
     13    -0.282E-07     0.0001920905        3.6553741298       0.52  <-- CONV
        O_D=      0.0118852 O_OD=      0.6875701 O_TOT=      3.6553741 <-- SPRD
 Delta: O_D= -0.5402872E-08 O_OD= -0.2278880E-07 O_TOT= -0.2819167E-07 <-- DLTA
 ------------------------------------------------------------------------------
 Cycle:     14
  WF centre and spread    1  (  0.000006,  0.000018,  9.999989 )     0.97008051
  WF centre and spread    2  (  1.223643,  0.706481, 10.000078 )     0.97007832
  WF centre and spread    3  (  0.611813,  0.353230,  9.999993 )     0.57173831
  WF centre and spread    4  (  1.223630,  1.412929,  9.999992 )     0.57173870
  WF centre and spread    5  (  1.835448,  0.353231,  9.999992 )     0.57173837
  Sum of centres and spreads (  4.894539,  2.825889, 50.000044 )     3.65537420
 
     14    -0.187E-07     0.0001281534        3.6553741111       0.52  <-- CONV
        O_D=      0.0118852 O_OD=      0.6875701 O_TOT=      3.6553741 <-- SPRD
 Delta: O_D= -0.1327632E-08 O_OD= -0.1741056E-07 O_TOT= -0.1873820E-07 <-- DLTA
 ------------------------------------------------------------------------------
 Cycle:     15
  WF centre and spread    1  (  0.000006,  0.000018,  9.999990 )     0.97008052
  WF centre and spread    2  (  1.223643,  0.706481, 10.000080 )     0.97007830
  WF centre and spread    3  (  0.611813,  0.353230,  9.999992 )     0.57173831
  WF centre and spread    4  (  1.223630,  1.412929,  9.999991 )     0.57173870
  WF centre and spread    5  (  1.835448,  0.353231,  9.999991 )     0.57173836
  Sum of centres and spreads (  4.894539,  2.825889, 50.000044 )     3.65537419
 
     15    -0.127E-07     0.0001035469        3.6553740984       0.52  <-- CONV
        O_D=      0.0118852 O_OD=      0.6875700 O_TOT=      3.6553741 <-- SPRD
 Delta: O_D= -0.2704187E-09 O_OD= -0.1239926E-07 O_TOT= -0.1266968E-07 <-- DLTA
 ------------------------------------------------------------------------------
 Cycle:     16
  WF centre and spread    1  (  0.000006,  0.000018,  9.999990 )     0.97008054
  WF centre and spread    2  (  1.223643,  0.706481, 10.000082 )     0.97007828
  WF centre and spread    3  (  0.611813,  0.353230,  9.999991 )     0.57173831
  WF centre and spread    4  (  1.223630,  1.412929,  9.999990 )     0.57173870
  WF centre and spread    5  (  1.835448,  0.353231,  9.999990 )     0.57173836
  Sum of centres and spreads (  4.894539,  2.825889, 50.000044 )     3.65537418
 
     16    -0.747E-08     0.0000802675        3.6553740910       0.52  <-- CONV
        O_D=      0.0118852 O_OD=      0.6875700 O_TOT=      3.6553741 <-- SPRD
 Delta: O_D= -0.1275306E-08 O_OD= -0.6190234E-08 O_TOT= -0.7465541E-08 <-- DLTA
 ------------------------------------------------------------------------------
 Cycle:     17
  WF centre and spread    1  (  0.000006,  0.000018,  9.999991 )     0.97008055
  WF centre and spread    2  (  1.223643,  0.706481, 10.000083 )     0.97007827
  WF centre and spread    3  (  0.611813,  0.353230,  9.999990 )     0.57173832
  WF centre and spread    4  (  1.223630,  1.412929,  9.999989 )     0.57173870
  WF centre and spread    5  (  1.835448,  0.353231,  9.999990 )     0.57173836
  Sum of centres and spreads (  4.894539,  2.825889, 50.000044 )     3.65537418
 
     17    -0.374E-08     0.0000623090        3.6553740872       0.52  <-- CONV
        O_D=      0.0118852 O_OD=      0.6875700 O_TOT=      3.6553741 <-- SPRD
 Delta: O_D= -0.8013495E-09 O_OD= -0.2942475E-08 O_TOT= -0.3743824E-08 <-- DLTA
 ------------------------------------------------------------------------------
 Cycle:     18
  WF centre and spread    1  (  0.000006,  0.000018,  9.999992 )     0.97008056
  WF centre and spread    2  (  1.223643,  0.706481, 10.000085 )     0.97007825
  WF centre and spread    3  (  0.611813,  0.353230,  9.999990 )     0.57173832
  WF centre and spread    4  (  1.223630,  1.412929,  9.999989 )     0.57173870
  WF centre and spread    5  (  1.835448,  0.353231,  9.999989 )     0.57173835
  Sum of centres and spreads (  4.894539,  2.825889, 50.000044 )     3.65537418
 
     18    -0.138E-08     0.0000368279        3.6553740858       0.52  <-- CONV
        O_D=      0.0118852 O_OD=      0.6875700 O_TOT=      3.6553741 <-- SPRD
 Delta: O_D= -0.1659510E-09 O_OD= -0.1213910E-08 O_TOT= -0.1379862E-08 <-- DLTA
 ------------------------------------------------------------------------------
 Cycle:     19
  WF centre and spread    1  (  0.000006,  0.000018,  9.999992 )     0.97008056
  WF centre and spread    2  (  1.223643,  0.706481, 10.000085 )     0.97007825
  WF centre and spread    3  (  0.611813,  0.353230,  9.999990 )     0.57173832
  WF centre and spread    4  (  1.223630,  1.412929,  9.999988 )     0.57173870
  WF centre and spread    5  (  1.835448,  0.353231,  9.999989 )     0.57173835
  Sum of centres and spreads (  4.894539,  2.825889, 50.000044 )     3.65537418
 
     19    -0.844E-09     0.0000331469        3.6553740850       0.52  <-- CONV
        O_D=      0.0118852 O_OD=      0.6875700 O_TOT=      3.6553741 <-- SPRD
 Delta: O_D= -0.1580998E-09 O_OD= -0.6860748E-09 O_TOT= -0.8441745E-09 <-- DLTA
 ------------------------------------------------------------------------------
 Cycle:     20
  WF centre and spread    1  (  0.000006,  0.000018,  9.999993 )     0.97008057
  WF centre and spread    2  (  1.223643,  0.706481, 10.000088 )     0.97007823
  WF centre and spread    3  (  0.611813,  0.353230,  9.999989 )     0.57173832
  WF centre and spread    4  (  1.223630,  1.412929,  9.999987 )     0.57173870
  WF centre and spread    5  (  1.835448,  0.353231,  9.999987 )     0.57173835
  Sum of centres and spreads (  4.894539,  2.825889, 50.000044 )     3.65537418
 
     20    -0.170E-08     0.0000264567        3.6553740833       0.52  <-- CONV
        O_D=      0.0118852 O_OD=      0.6875700 O_TOT=      3.6553741 <-- SPRD
 Delta: O_D= -0.7024614E-10 O_OD= -0.1630585E-08 O_TOT= -0.1700831E-08 <-- DLTA
 ------------------------------------------------------------------------------
 Cycle:     21
  WF centre and spread    1  (  0.000006,  0.000018,  9.999995 )     0.97008060
  WF centre and spread    2  (  1.223643,  0.706481, 10.000093 )     0.97007820
  WF centre and spread    3  (  0.611813,  0.353230,  9.999986 )     0.57173833
  WF centre and spread    4  (  1.223630,  1.412929,  9.999985 )     0.57173870
  WF centre and spread    5  (  1.835448,  0.353231,  9.999985 )     0.57173835
  Sum of centres and spreads (  4.894539,  2.825889, 50.000044 )     3.65537417
 
     21    -0.267E-08     0.0000367982        3.6553740806       0.53  <-- CONV
        O_D=      0.0118852 O_OD=      0.6875700 O_TOT=      3.6553741 <-- SPRD
 Delta: O_D= -0.1473744E-10 O_OD= -0.2656846E-08 O_TOT= -0.2671584E-08 <-- DLTA
 ------------------------------------------------------------------------------
 Cycle:     22
  WF centre and spread    1  (  0.000006,  0.000018,  9.999998 )     0.97008064
  WF centre and spread    2  (  1.223643,  0.706481, 10.000101 )     0.97007814
  WF centre and spread    3  (  0.611813,  0.353230,  9.999983 )     0.57173834
  WF centre and spread    4  (  1.223630,  1.412929,  9.999981 )     0.57173871
  WF centre and spread    5  (  1.835448,  0.353231,  9.999981 )     0.57173834
  Sum of centres and spreads (  4.894539,  2.825889, 50.000044 )     3.65537417
 
     22    -0.334E-08     0.0000459542        3.6553740773       0.53  <-- CONV
        O_D=      0.0118852 O_OD=      0.6875700 O_TOT=      3.6553741 <-- SPRD
 Delta: O_D= -0.7604196E-09 O_OD= -0.2583898E-08 O_TOT= -0.3344318E-08 <-- DLTA
 ------------------------------------------------------------------------------
 Cycle:     23
  WF centre and spread    1  (  0.000006,  0.000018, 10.000001 )     0.97008067
  WF centre and spread    2  (  1.223643,  0.706481, 10.000109 )     0.97007810
  WF centre and spread    3  (  0.611813,  0.353230,  9.999979 )     0.57173835
  WF centre and spread    4  (  1.223630,  1.412929,  9.999978 )     0.57173871
  WF centre and spread    5  (  1.835448,  0.353231,  9.999978 )     0.57173834
  Sum of centres and spreads (  4.894539,  2.825889, 50.000044 )     3.65537417
 
     23    -0.272E-08     0.0000460847        3.6553740746       0.53  <-- CONV
        O_D=      0.0118852 O_OD=      0.6875700 O_TOT=      3.6553741 <-- SPRD
 Delta: O_D= -0.5691120E-09 O_OD= -0.2151327E-08 O_TOT= -0.2720439E-08 <-- DLTA
 ------------------------------------------------------------------------------
 Cycle:     24
  WF centre and spread    1  (  0.000006,  0.000018, 10.000004 )     0.97008070
  WF centre and spread    2  (  1.223643,  0.706481, 10.000116 )     0.97007806
  WF centre and spread    3  (  0.611813,  0.353230,  9.999976 )     0.57173836
  WF centre and spread    4  (  1.223630,  1.412929,  9.999974 )     0.57173871
  WF centre and spread    5  (  1.835448,  0.353231,  9.999974 )     0.57173833
  Sum of centres and spreads (  4.894539,  2.825889, 50.000045 )     3.65537417
 
     24    -0.241E-08     0.0000409684        3.6553740721       0.53  <-- CONV
        O_D=      0.0118852 O_OD=      0.6875700 O_TOT=      3.6553741 <-- SPRD
 Delta: O_D= -0.1494885E-09 O_OD= -0.2258862E-08 O_TOT= -0.2408350E-08 <-- DLTA
 ------------------------------------------------------------------------------
 Cycle:     25
  WF centre and spread    1  (  0.000006,  0.000018, 10.000005 )     0.97008070
  WF centre and spread    2  (  1.223643,  0.706481, 10.000116 )     0.97007806
  WF centre and spread    3  (  0.611813,  0.353230,  9.999976 )     0.57173836
  WF centre and spread    4  (  1.223630,  1.412929,  9.999974 )     0.57173871
  WF centre and spread    5  (  1.835448,  0.353231,  9.999974 )     0.57173833
  Sum of centres and spreads (  4.894539,  2.825889, 50.000045 )     3.65537416
 
     25    -0.175E-08     0.0000488123        3.6553740704       0.53  <-- CONV
        O_D=      0.0118852 O_OD=      0.6875700 O_TOT=      3.6553741 <-- SPRD
 Delta: O_D= -0.3658378E-09 O_OD= -0.1382959E-08 O_TOT= -0.1748797E-08 <-- DLTA
 ------------------------------------------------------------------------------
 Cycle:     26
  WF centre and spread    1  (  0.000006,  0.000018, 10.000005 )     0.97008070
  WF centre and spread    2  (  1.223643,  0.706481, 10.000118 )     0.97007806
  WF centre and spread    3  (  0.611813,  0.353230,  9.999975 )     0.57173836
  WF centre and spread    4  (  1.223630,  1.412929,  9.999973 )     0.57173871
[...]
  Sum of centres and spreads (  4.894539,  2.825889, 50.000048 )     3.65537413
 
     79    -0.135E-09     0.0000131555        3.6553740340       0.59  <-- CONV
        O_D=      0.0118852 O_OD=      0.6875700 O_TOT=      3.6553740 <-- SPRD
 Delta: O_D= -0.1920410E-10 O_OD= -0.1153455E-09 O_TOT= -0.1345497E-09 <-- DLTA
 ------------------------------------------------------------------------------
 Cycle:     80
  WF centre and spread    1  (  0.000006,  0.000018, 10.000082 )     0.97008065
  WF centre and spread    2  (  1.223643,  0.706481, 10.000238 )     0.97007803
  WF centre and spread    3  (  0.611813,  0.353230,  9.999912 )     0.57173836
  WF centre and spread    4  (  1.223630,  1.412929,  9.999909 )     0.57173873
  WF centre and spread    5  (  1.835448,  0.353231,  9.999907 )     0.57173836
  Sum of centres and spreads (  4.894539,  2.825889, 50.000048 )     3.65537413
 
     80    -0.251E-09     0.0000181699        3.6553740337       0.59  <-- CONV
        O_D=      0.0118852 O_OD=      0.6875700 O_TOT=      3.6553740 <-- SPRD
 Delta: O_D=  0.4666627E-10 O_OD= -0.2977476E-09 O_TOT= -0.2510814E-09 <-- DLTA
 ------------------------------------------------------------------------------
 Cycle:     81
  WF centre and spread    1  (  0.000006,  0.000018, 10.000083 )     0.97008065
  WF centre and spread    2  (  1.223643,  0.706481, 10.000239 )     0.97007803
  WF centre and spread    3  (  0.611813,  0.353230,  9.999911 )     0.57173836
  WF centre and spread    4  (  1.223630,  1.412929,  9.999908 )     0.57173873
  WF centre and spread    5  (  1.835448,  0.353231,  9.999906 )     0.57173836
  Sum of centres and spreads (  4.894539,  2.825889, 50.000048 )     3.65537413
 
     81    -0.282E-09     0.0000197858        3.6553740334       0.60  <-- CONV
        O_D=      0.0118852 O_OD=      0.6875700 O_TOT=      3.6553740 <-- SPRD
 Delta: O_D= -0.4355611E-10 O_OD= -0.2382931E-09 O_TOT= -0.2818492E-09 <-- DLTA
 ------------------------------------------------------------------------------
 Cycle:     82
  WF centre and spread    1  (  0.000006,  0.000018, 10.000085 )     0.97008065
  WF centre and spread    2  (  1.223643,  0.706481, 10.000242 )     0.97007803
  WF centre and spread    3  (  0.611813,  0.353230,  9.999910 )     0.57173836
  WF centre and spread    4  (  1.223630,  1.412929,  9.999907 )     0.57173873
  WF centre and spread    5  (  1.835448,  0.353231,  9.999905 )     0.57173836
  Sum of centres and spreads (  4.894539,  2.825889, 50.000048 )     3.65537413
 
     82    -0.360E-09     0.0000173954        3.6553740331       0.60  <-- CONV
        O_D=      0.0118852 O_OD=      0.6875700 O_TOT=      3.6553740 <-- SPRD
 Delta: O_D=  0.4397735E-10 O_OD= -0.4043023E-09 O_TOT= -0.3603247E-09 <-- DLTA
 ------------------------------------------------------------------------------
 Cycle:     83
  WF centre and spread    1  (  0.000006,  0.000018, 10.000087 )     0.97008064
  WF centre and spread    2  (  1.223643,  0.706481, 10.000244 )     0.97007803
  WF centre and spread    3  (  0.611813,  0.353230,  9.999908 )     0.57173836
  WF centre and spread    4  (  1.223630,  1.412929,  9.999905 )     0.57173873
  WF centre and spread    5  (  1.835448,  0.353231,  9.999903 )     0.57173836
  Sum of centres and spreads (  4.894539,  2.825889, 50.000048 )     3.65537413
 
     83    -0.323E-09     0.0000217189        3.6553740327       0.60  <-- CONV
        O_D=      0.0118852 O_OD=      0.6875700 O_TOT=      3.6553740 <-- SPRD
 Delta: O_D= -0.3761593E-10 O_OD= -0.2858822E-09 O_TOT= -0.3234986E-09 <-- DLTA
 ------------------------------------------------------------------------------
 Cycle:     84
  WF centre and spread    1  (  0.000006,  0.000018, 10.000089 )     0.97008064
  WF centre and spread    2  (  1.223643,  0.706481, 10.000247 )     0.97007802
  WF centre and spread    3  (  0.611813,  0.353230,  9.999907 )     0.57173836
  WF centre and spread    4  (  1.223630,  1.412929,  9.999904 )     0.57173873
  WF centre and spread    5  (  1.835448,  0.353231,  9.999902 )     0.57173836
  Sum of centres and spreads (  4.894539,  2.825889, 50.000048 )     3.65537413
 
     84    -0.383E-09     0.0000211830        3.6553740324       0.60  <-- CONV
        O_D=      0.0118852 O_OD=      0.6875700 O_TOT=      3.6553740 <-- SPRD
 Delta: O_D= -0.2909046E-10 O_OD= -0.3535087E-09 O_TOT= -0.3825988E-09 <-- DLTA
 ------------------------------------------------------------------------------
 Cycle:     85
  WF centre and spread    1  (  0.000006,  0.000018, 10.000089 )     0.97008064
  WF centre and spread    2  (  1.223643,  0.706481, 10.000247 )     0.97007802
  WF centre and spread    3  (  0.611813,  0.353230,  9.999907 )     0.57173836
  WF centre and spread    4  (  1.223630,  1.412929,  9.999903 )     0.57173873
  WF centre and spread    5  (  1.835448,  0.353231,  9.999902 )     0.57173836
  Sum of centres and spreads (  4.894539,  2.825889, 50.000048 )     3.65537412
 
     85    -0.432E-09     0.0000230899        3.6553740319       0.60  <-- CONV
        O_D=      0.0118852 O_OD=      0.6875700 O_TOT=      3.6553740 <-- SPRD
 Delta: O_D= -0.7949668E-10 O_OD= -0.3528994E-09 O_TOT= -0.4323963E-09 <-- DLTA
 ------------------------------------------------------------------------------
 Cycle:     86
  WF centre and spread    1  (  0.000006,  0.000018, 10.000090 )     0.97008064
  WF centre and spread    2  (  1.223643,  0.706481, 10.000248 )     0.97007802
  WF centre and spread    3  (  0.611813,  0.353230,  9.999906 )     0.57173836
  WF centre and spread    4  (  1.223630,  1.412929,  9.999903 )     0.57173874
  WF centre and spread    5  (  1.835448,  0.353231,  9.999901 )     0.57173836
  Sum of centres and spreads (  4.894539,  2.825889, 50.000048 )     3.65537412
 
     86    -0.337E-09     0.0000162426        3.6553740316       0.60  <-- CONV
        O_D=      0.0118852 O_OD=      0.6875700 O_TOT=      3.6553740 <-- SPRD
 Delta: O_D= -0.1836141E-10 O_OD= -0.3188307E-09 O_TOT= -0.3371921E-09 <-- DLTA
 ------------------------------------------------------------------------------
 Cycle:     87
  WF centre and spread    1  (  0.000006,  0.000018, 10.000090 )     0.97008064
  WF centre and spread    2  (  1.223643,  0.706481, 10.000249 )     0.97007802
  WF centre and spread    3  (  0.611813,  0.353230,  9.999906 )     0.57173836
  WF centre and spread    4  (  1.223630,  1.412929,  9.999902 )     0.57173874
  WF centre and spread    5  (  1.835448,  0.353231,  9.999901 )     0.57173836
  Sum of centres and spreads (  4.894539,  2.825889, 50.000048 )     3.65537412
 
     87    -0.284E-09     0.0000126217        3.6553740313       0.60  <-- CONV
        O_D=      0.0118852 O_OD=      0.6875700 O_TOT=      3.6553740 <-- SPRD
 Delta: O_D=  0.1068645E-10 O_OD= -0.2943271E-09 O_TOT= -0.2836407E-09 <-- DLTA
 ------------------------------------------------------------------------------
 Cycle:     88
  WF centre and spread    1  (  0.000006,  0.000018, 10.000092 )     0.97008064
  WF centre and spread    2  (  1.223643,  0.706481, 10.000251 )     0.97007802
  WF centre and spread    3  (  0.611813,  0.353230,  9.999905 )     0.57173836
  WF centre and spread    4  (  1.223630,  1.412929,  9.999901 )     0.57173874
  WF centre and spread    5  (  1.835448,  0.353231,  9.999900 )     0.57173836
  Sum of centres and spreads (  4.894539,  2.825889, 50.000048 )     3.65537412
 
     88    -0.413E-09     0.0000156977        3.6553740309       0.60  <-- CONV
        O_D=      0.0118852 O_OD=      0.6875700 O_TOT=      3.6553740 <-- SPRD
 Delta: O_D= -0.7653364E-11 O_OD= -0.4055065E-09 O_TOT= -0.4131597E-09 <-- DLTA
 ------------------------------------------------------------------------------
 Cycle:     89
  WF centre and spread    1  (  0.000006,  0.000018, 10.000093 )     0.97008064
  WF centre and spread    2  (  1.223643,  0.706481, 10.000253 )     0.97007802
  WF centre and spread    3  (  0.611813,  0.353230,  9.999904 )     0.57173836
  WF centre and spread    4  (  1.223630,  1.412929,  9.999900 )     0.57173874
  WF centre and spread    5  (  1.835448,  0.353231,  9.999899 )     0.57173836
  Sum of centres and spreads (  4.894539,  2.825889, 50.000048 )     3.65537412
 
     89    -0.226E-09     0.0000115861        3.6553740307       0.60  <-- CONV
        O_D=      0.0118852 O_OD=      0.6875700 O_TOT=      3.6553740 <-- SPRD
 Delta: O_D= -0.1975062E-10 O_OD= -0.2062545E-09 O_TOT= -0.2260050E-09 <-- DLTA
 ------------------------------------------------------------------------------
 Cycle:     90
  WF centre and spread    1  (  0.000006,  0.000018, 10.000093 )     0.97008064
  WF centre and spread    2  (  1.223643,  0.706481, 10.000253 )     0.97007802
  WF centre and spread    3  (  0.611813,  0.353230,  9.999904 )     0.57173836
  WF centre and spread    4  (  1.223630,  1.412929,  9.999900 )     0.57173874
  WF centre and spread    5  (  1.835448,  0.353231,  9.999899 )     0.57173836
  Sum of centres and spreads (  4.894539,  2.825889, 50.000048 )     3.65537412
 
     90    -0.129E-11     0.0000128886        3.6553740307       0.61  <-- CONV
        O_D=      0.0118852 O_OD=      0.6875700 O_TOT=      3.6553740 <-- SPRD
 Delta: O_D= -0.2947989E-13 O_OD= -0.1262768E-11 O_TOT= -0.1292300E-11 <-- DLTA
 ------------------------------------------------------------------------------
 Cycle:     91
  WF centre and spread    1  (  0.000006,  0.000018, 10.000093 )     0.97008064
  WF centre and spread    2  (  1.223643,  0.706481, 10.000253 )     0.97007802
  WF centre and spread    3  (  0.611813,  0.353230,  9.999904 )     0.57173836
  WF centre and spread    4  (  1.223630,  1.412929,  9.999900 )     0.57173874
  WF centre and spread    5  (  1.835448,  0.353231,  9.999898 )     0.57173836
  Sum of centres and spreads (  4.894539,  2.825889, 50.000048 )     3.65537412
 
     91    -0.156E-09     0.0000128830        3.6553740305       0.61  <-- CONV
        O_D=      0.0118852 O_OD=      0.6875700 O_TOT=      3.6553740 <-- SPRD
 Delta: O_D= -0.2171996E-10 O_OD= -0.1342725E-09 O_TOT= -0.1559926E-09 <-- DLTA
 ------------------------------------------------------------------------------
 Cycle:     92
  WF centre and spread    1  (  0.000006,  0.000018, 10.000093 )     0.97008064
  WF centre and spread    2  (  1.223643,  0.706481, 10.000253 )     0.97007802
  WF centre and spread    3  (  0.611813,  0.353230,  9.999904 )     0.57173836
  WF centre and spread    4  (  1.223630,  1.412929,  9.999900 )     0.57173874
  WF centre and spread    5  (  1.835448,  0.353231,  9.999898 )     0.57173836
  Sum of centres and spreads (  4.894539,  2.825889, 50.000048 )     3.65537412
 
     92    -0.766E-12     0.0000089389        3.6553740305       0.61  <-- CONV
        O_D=      0.0118852 O_OD=      0.6875700 O_TOT=      3.6553740 <-- SPRD
 Delta: O_D= -0.6328271E-13 O_OD= -0.7024381E-12 O_TOT= -0.7656098E-12 <-- DLTA
 ------------------------------------------------------------------------------
 Cycle:     93
  WF centre and spread    1  (  0.000006,  0.000018, 10.000094 )     0.97008064
  WF centre and spread    2  (  1.223643,  0.706481, 10.000254 )     0.97007802
  WF centre and spread    3  (  0.611813,  0.353230,  9.999903 )     0.57173836
  WF centre and spread    4  (  1.223630,  1.412929,  9.999900 )     0.57173874
  WF centre and spread    5  (  1.835448,  0.353231,  9.999898 )     0.57173836
  Sum of centres and spreads (  4.894539,  2.825889, 50.000048 )     3.65537412
 
     93    -0.204E-09     0.0000089265        3.6553740303       0.61  <-- CONV
        O_D=      0.0118852 O_OD=      0.6875700 O_TOT=      3.6553740 <-- SPRD
 Delta: O_D=  0.1946018E-10 O_OD= -0.2231153E-09 O_TOT= -0.2036553E-09 <-- DLTA
 ------------------------------------------------------------------------------
 Cycle:     94
  WF centre and spread    1  (  0.000006,  0.000018, 10.000094 )     0.97008064
  WF centre and spread    2  (  1.223643,  0.706481, 10.000254 )     0.97007802
  WF centre and spread    3  (  0.611813,  0.353230,  9.999903 )     0.57173836
  WF centre and spread    4  (  1.223630,  1.412929,  9.999899 )     0.57173874
  WF centre and spread    5  (  1.835448,  0.353231,  9.999898 )     0.57173836
  Sum of centres and spreads (  4.894539,  2.825889, 50.000048 )     3.65537412
 
     94    -0.133E-09     0.0000171108        3.6553740302       0.61  <-- CONV
        O_D=      0.0118852 O_OD=      0.6875700 O_TOT=      3.6553740 <-- SPRD
 Delta: O_D= -0.3549742E-10 O_OD= -0.9762302E-10 O_TOT= -0.1331206E-09 <-- DLTA
 ------------------------------------------------------------------------------
 Cycle:     95
  WF centre and spread    1  (  0.000006,  0.000018, 10.000094 )     0.97008064
  WF centre and spread    2  (  1.223643,  0.706481, 10.000254 )     0.97007802
  WF centre and spread    3  (  0.611813,  0.353230,  9.999903 )     0.57173836
  WF centre and spread    4  (  1.223630,  1.412929,  9.999899 )     0.57173874
  WF centre and spread    5  (  1.835448,  0.353231,  9.999898 )     0.57173836
  Sum of centres and spreads (  4.894539,  2.825889, 50.000048 )     3.65537412
 
     95    -0.495E-12     0.0000082286        3.6553740302       0.61  <-- CONV
        O_D=      0.0118852 O_OD=      0.6875700 O_TOT=      3.6553740 <-- SPRD
 Delta: O_D= -0.6762126E-13 O_OD= -0.4279910E-12 O_TOT= -0.4951595E-12 <-- DLTA
 ------------------------------------------------------------------------------
 Cycle:     96
  WF centre and spread    1  (  0.000006,  0.000018, 10.000095 )     0.97008064
  WF centre and spread    2  (  1.223643,  0.706481, 10.000255 )     0.97007802
  WF centre and spread    3  (  0.611813,  0.353230,  9.999902 )     0.57173836
  WF centre and spread    4  (  1.223630,  1.412929,  9.999899 )     0.57173874
  WF centre and spread    5  (  1.835448,  0.353231,  9.999897 )     0.57173836
  Sum of centres and spreads (  4.894539,  2.825889, 50.000048 )     3.65537412
 
     96    -0.106E-09     0.0000082137        3.6553740301       0.61  <-- CONV
        O_D=      0.0118852 O_OD=      0.6875700 O_TOT=      3.6553740 <-- SPRD
 Delta: O_D=  0.3943930E-10 O_OD= -0.1451512E-09 O_TOT= -0.1057123E-09 <-- DLTA
 ------------------------------------------------------------------------------
 Cycle:     97
  WF centre and spread    1  (  0.000006,  0.000018, 10.000096 )     0.97008064
  WF centre and spread    2  (  1.223643,  0.706481, 10.000256 )     0.97007802
  WF centre and spread    3  (  0.611813,  0.353230,  9.999902 )     0.57173836
  WF centre and spread    4  (  1.223630,  1.412929,  9.999898 )     0.57173874
  WF centre and spread    5  (  1.835448,  0.353231,  9.999896 )     0.57173836
  Sum of centres and spreads (  4.894539,  2.825889, 50.000048 )     3.65537412
 
     97    -0.821E-10     0.0000138091        3.6553740300       0.61  <-- CONV
        O_D=      0.0118852 O_OD=      0.6875700 O_TOT=      3.6553740 <-- SPRD
 Delta: O_D=  0.1114443E-09 O_OD= -0.1935778E-09 O_TOT= -0.8213297E-10 <-- DLTA
 ------------------------------------------------------------------------------
 Cycle:     98
  WF centre and spread    1  (  0.000006,  0.000018, 10.000096 )     0.97008064
  WF centre and spread    2  (  1.223643,  0.706481, 10.000256 )     0.97007802
  WF centre and spread    3  (  0.611813,  0.353230,  9.999902 )     0.57173836
  WF centre and spread    4  (  1.223630,  1.412929,  9.999898 )     0.57173874
  WF centre and spread    5  (  1.835448,  0.353231,  9.999896 )     0.57173836
  Sum of centres and spreads (  4.894539,  2.825889, 50.000048 )     3.65537412
 
     98    -0.241E-09     0.0000241145        3.6553740298       0.61  <-- CONV
        O_D=      0.0118852 O_OD=      0.6875700 O_TOT=      3.6553740 <-- SPRD
 Delta: O_D= -0.1683292E-09 O_OD= -0.7229772E-10 O_TOT= -0.2406271E-09 <-- DLTA
 ------------------------------------------------------------------------------
 Cycle:     99
  WF centre and spread    1  (  0.000006,  0.000018, 10.000096 )     0.97008064
  WF centre and spread    2  (  1.223643,  0.706481, 10.000256 )     0.97007802
  WF centre and spread    3  (  0.611813,  0.353230,  9.999902 )     0.57173836
  WF centre and spread    4  (  1.223630,  1.412929,  9.999898 )     0.57173874
  WF centre and spread    5  (  1.835448,  0.353231,  9.999896 )     0.57173836
  Sum of centres and spreads (  4.894539,  2.825889, 50.000048 )     3.65537412
 
     99    -0.490E-12     0.0000078825        3.6553740297       0.61  <-- CONV
        O_D=      0.0118852 O_OD=      0.6875700 O_TOT=      3.6553740 <-- SPRD
 Delta: O_D= -0.8497023E-13 O_OD= -0.4054534E-12 O_TOT= -0.4902745E-12 <-- DLTA
 ------------------------------------------------------------------------------
 Cycle:    100
  WF centre and spread    1  (  0.000006,  0.000018, 10.000097 )     0.97008064
  WF centre and spread    2  (  1.223643,  0.706481, 10.000257 )     0.97007802
  WF centre and spread    3  (  0.611813,  0.353230,  9.999901 )     0.57173836
  WF centre and spread    4  (  1.223630,  1.412929,  9.999898 )     0.57173874
  WF centre and spread    5  (  1.835448,  0.353231,  9.999896 )     0.57173836
  Sum of centres and spreads (  4.894539,  2.825889, 50.000049 )     3.65537412
 
    100    -0.107E-09     0.0000078679        3.6553740296       0.62  <-- CONV
        O_D=      0.0118852 O_OD=      0.6875700 O_TOT=      3.6553740 <-- SPRD
 Delta: O_D=  0.3993536E-10 O_OD= -0.1472705E-09 O_TOT= -0.1073355E-09 <-- DLTA
 ------------------------------------------------------------------------------

 Writing checkpoint file wannier90.chk... done

 Final State
  WF centre and spread    1  (  0.000006,  0.000018, 10.000097 )     0.97008064
  WF centre and spread    2  (  1.223643,  0.706481, 10.000257 )     0.97007802
  WF centre and spread    3  (  0.611813,  0.353230,  9.999901 )     0.57173836
  WF centre and spread    4  (  1.223630,  1.412929,  9.999898 )     0.57173874
  WF centre and spread    5  (  1.835448,  0.353231,  9.999896 )     0.57173836
  Sum of centres and spreads (  4.894539,  2.825889, 50.000049 )     3.65537412
 
         Spreads (Ang^2)       Omega I      =     2.955918843
        ================       Omega D      =     0.011885204
                               Omega OD     =     0.687569982
    Final Spread (Ang^2)       Omega Total  =     3.655374030
 ------------------------------------------------------------------------------

 Wannier centres written to file wannier90_centres.xyz
 Time for wannierise            0.119 (sec)

 Writing checkpoint file wannier90.chk... done

 *---------------------------------------------------------------------------*
 |                               PLOTTING                                    |
 *---------------------------------------------------------------------------*
 
 
 Calculating interpolated band-structure
 
 Time to calculate interpolated band structure       0.153 (sec)
 
 Time for plotting              0.232 (sec)
 Total Execution Time           1.751 (sec)

 *===========================================================================*
 |                             TIMING INFORMATION                            |
 *===========================================================================*
 |    Tag                                                Ncalls      Time (s)|
 |---------------------------------------------------------------------------|
 |kmesh: get                                        :         1         0.165|
 |overlap: allocate                                 :         1         0.000|
 |overlap: read                                     :         1         0.706|
 |dis: main                                         :         1         0.493|
 |wann: main                                        :         1         0.119|
 |plot: main                                        :         1         0.232|
 *---------------------------------------------------------------------------*
 
 All done: wannier90 exiting
