 
             +---------------------------------------------------+
             |                                                   |
             |                   WANNIER90                       |
             |                                                   |
             +---------------------------------------------------+
             |                                                   |
             |        Welcome to the Maximally-Localized         |
             |        Generalized Wannier Functions code         |
             |            http://www.wannier.org                 |
             |                                                   |
             |                                                   |
             |  Wannier90 Developer Group:                       |
             |    Giovanni Pizzi    (EPFL)                       |
             |    Valerio Vitale    (Cambridge)                  |
             |    David Vanderbilt  (Rutgers University)         |
             |    Nicola Marzari    (EPFL)                       |
             |    Ivo Souza         (Universidad del Pais Vasco) |
             |    Arash A. Mostofi  (Imperial College London)    |
             |    Jonathan R. Yates (University of Oxford)       |
             |                                                   |
             |  For the full list of Wannier90 3.x authors,      |
             |  please check the code documentation and the      |
             |  README on the GitHub page of the code            |
             |                                                   |
             |                                                   |
             |  Please cite                                      |
             |                                                   |
             |  [ref] "Wannier90 as a community code:            |
             |        new features and applications",            |
             |        G. Pizzi et al., J. Phys. Cond. Matt. 32,  |
             |        165902 (2020).                             |
             |        http://doi.org/10.1088/1361-648X/ab51ff    |
             |                                                   |
             |  in any publications arising from the use of      |
             |  this code. For the method please cite            |
             |                                                   |
             |  [ref] "Maximally Localized Generalised Wannier   |
             |         Functions for Composite Energy Bands"     |
             |         N. Marzari and D. Vanderbilt              |
             |         Phys. Rev. B 56 12847 (1997)              |
             |                                                   |
             |  [ref] "Maximally Localized Wannier Functions     |
             |         for Entangled Energy Bands"               |
             |         I. Souza, N. Marzari and D. Vanderbilt    |
             |         Phys. Rev. B 65 035109 (2001)             |
             |                                                   |
             |                                                   |
             | Copyright (c) 1996-2020                           |
             |        The Wannier90 Developer Group and          |
             |        individual contributors                    |
             |                                                   |
             |      Release: 3.1.0        5th March    2020      |
             |                                                   |
             | This program is free software; you can            |
             | redistribute it and/or modify it under the terms  |
             | of the GNU General Public License as published by |
             | the Free Software Foundation; either version 2 of |
             | the License, or (at your option) any later version|
             |                                                   |
             | This program is distributed in the hope that it   |
             | will be useful, but WITHOUT ANY WARRANTY; without |
             | even the implied warranty of MERCHANTABILITY or   |
             | FITNESS FOR A PARTICULAR PURPOSE. See the GNU     |
             | General Public License for more details.          |
             |                                                   |
             | You should have received a copy of the GNU General|
             | Public License along with this program; if not,   |
             | write to the Free Software Foundation, Inc.,      |
             | 675 Mass Ave, Cambridge, MA 02139, USA.           |
             |                                                   |
             +---------------------------------------------------+
             |    Execution started on  8Nov2021 at 22:05:45     |
             +---------------------------------------------------+
 
 ******************************************************************************
 * -> Using CODATA 2006 constant values                                       *
 *    (http://physics.nist.gov/cuu/Constants/index.html)                      *
 * -> Using Bohr value from CODATA                                            *
 ******************************************************************************
 

 Running in serial (with parallel executable)
 
                                    ------
                                    SYSTEM
                                    ------
 
                              Lattice Vectors (Ang)
                    a_1     2.447260   0.000000   0.000000
                    a_2    -1.223630   2.119389   0.000000
                    a_3     0.000000   0.000000  19.999999
 
                   Unit Cell Volume:     103.73392  (Ang^3)
 
                        Reciprocal-Space Vectors (Ang^-1)
                    b_1     2.567436   1.482311   0.000000
                    b_2     0.000000   2.964621   0.000000
                    b_3     0.000000   0.000000   0.314159
  
 *----------------------------------------------------------------------------*
 |   Site       Fractional Coordinate          Cartesian Coordinate (Ang)     |
 +----------------------------------------------------------------------------+
 | C    1   0.00000   0.00000   0.50000   |    0.00000   0.00000  10.00000    |
 | C    2   0.66667   0.33333   0.50000   |    1.22363   0.70646  10.00000    |
 *----------------------------------------------------------------------------*
                                ------------
                                K-POINT GRID
                                ------------
  
             Grid size = 15 x 15 x  1      Total points =  225
  
  
 *---------------------------------- MAIN ------------------------------------*
 |  Number of Wannier Functions               :                 2             |
 |  Number of Objective Wannier Functions     :                 2             |
 |  Number of input Bloch states              :                15             |
 |  Output verbosity (1=low, 5=high)          :                 1             |
 |  Timing Level (1=low, 5=high)              :                 1             |
 |  Optimisation (0=memory, 3=speed)          :                 3             |
 |  Length Unit                               :               Ang             |
 |  Post-processing setup (write *.nnkp)      :                 F             |
 |  Using Gamma-only branch of algorithms     :                 F             |
 *----------------------------------------------------------------------------*
 *------------------------------- WANNIERISE ---------------------------------*
 |  Total number of iterations                :               200             |
 |  Number of CG steps before reset           :                 5             |
 |  Trial step length for line search         :             2.000             |
 |  Convergence tolerence                     :         0.100E-09             |
 |  Convergence window                        :                -1             |
 |  Iterations between writing output         :                 1             |
 |  Iterations between backing up to disk     :               100             |
 |  Write r^2_nm to file                      :                 F             |
 |  Write xyz WF centres to file              :                 T             |
 |  Write on-site energies <0n|H|0n> to file  :                 T             |
 |  Use guiding centre to control phases      :                 F             |
 |  Use phases for initial projections        :                 F             |
 *----------------------------------------------------------------------------*
 *------------------------------- DISENTANGLE --------------------------------*
 |  Using band disentanglement                :                 T             |
 |  Total number of iterations                :             10000             |
 |  Mixing ratio                              :             0.500             |
 |  Convergence tolerence                     :         1.000E-10             |
 |  Convergence window                        :                 3             |
 *----------------------------------------------------------------------------*
 *-------------------------------- PLOTTING ----------------------------------*
 |  Plotting interpolated bandstructure       :                 T             |
 |   Number of K-path sections                :                 3             |
 |   Divisions along first K-path section     :               100             |
 |   Output format                            :           gnuplot             |
 |   Output mode                              :               s-k             |
 *----------------------------------------------------------------------------*
 |   K-space path sections:                                                   |
 |    From: G       0.000  0.000  0.000     To: K       0.333  0.333  0.000   |
 |    From: K       0.333  0.333  0.000     To: M       0.500  0.000  0.000   |
 |    From: M       0.500  0.000  0.000     To: G       0.000  0.000  0.000   |
 *----------------------------------------------------------------------------*
 |  Plotting Hamiltonian in WF basis          :                 T             |
 *----------------------------------------------------------------------------*
 Time to read parameters        0.045 (sec)

 *---------------------------------- K-MESH ----------------------------------*
 +----------------------------------------------------------------------------+
 |                    Distance to Nearest-Neighbour Shells                    |
 |                    ------------------------------------                    |
 |          Shell             Distance (Ang^-1)          Multiplicity         |
 |          -----             -----------------          ------------         |
 |             1                   0.197641                      6            |
 |             2                   0.314159                      2            |
 |             3                   0.342325                      6            |
 |             4                   0.371158                     12            |
 |             5                   0.395283                      6            |
 |             6                   0.464632                     12            |
 |             7                   0.504920                     12            |
 |             8                   0.522910                     12            |
 |             9                   0.592924                      6            |
 |            10                   0.610025                     24            |
 |            11                   0.628319                      2            |
 |            12                   0.658670                     12            |
 |            13                   0.671011                     12            |
 |            14                   0.684650                      6            |
 |            15                   0.712606                     12            |
 |            16                   0.715521                     12            |
 |            17                   0.742316                     12            |
 |            18                   0.753287                     12            |
 |            19                   0.778784                     24            |
 |            20                   0.790566                      6            |
 |            21                   0.817447                     24            |
 |            22                   0.850700                     12            |
 |            23                   0.861499                     12            |
 |            24                   0.863912                     12            |
 |            25                   0.905707                     12            |
 |            26                   0.916993                     24            |
 |            27                   0.929263                     12            |
 |            28                   0.942478                      2            |
 |            29                   0.950048                     24            |
 |            30                   0.958645                     24            |
 |            31                   0.962978                     12            |
 |            32                   0.988207                      6            |
 |            33                   1.002722                     12            |
 |            34                   1.009841                     12            |
 |            35                   1.022014                     12            |
 |            36                   1.026975                      6            |
 +----------------------------------------------------------------------------+
 | The b-vectors are chosen automatically                                     |
 | The following shells are used:   1,  2                                     |
 +----------------------------------------------------------------------------+
 |                        Shell   # Nearest-Neighbours                        |
 |                        -----   --------------------                        |
 |                          1               6                                 |
 |                          2               2                                 |
 +----------------------------------------------------------------------------+
 | Completeness relation is fully satisfied [Eq. (B1), PRB 56, 12847 (1997)]  |
 +----------------------------------------------------------------------------+
 |                  b_k Vectors (Ang^-1) and Weights (Ang^2)                  |
 |                  ----------------------------------------                  |
 |            No.         b_k(x)      b_k(y)      b_k(z)        w_b           |
 |            ---        --------------------------------     --------        |
 |             1         0.000000    0.197641    0.000000     8.533416        |
 |             2         0.171162    0.098821    0.000000     8.533416        |
 |             3        -0.171162   -0.098821    0.000000     8.533416        |
 |             4        -0.171162    0.098821    0.000000     8.533416        |
 |             5         0.000000   -0.197641    0.000000     8.533416        |
 |             6         0.171162   -0.098821    0.000000     8.533416        |
 |             7         0.000000    0.000000    0.314159     5.066058        |
 |             8         0.000000    0.000000   -0.314159     5.066058        |
 +----------------------------------------------------------------------------+
 |                           b_k Directions (Ang^-1)                          |
 |                           -----------------------                          |
 |            No.           x           y           z                         |
 |            ---        --------------------------------                     |
 |             1         0.000000    0.197641    0.000000                     |
 |             2         0.171162    0.098821    0.000000                     |
 |             3        -0.171162    0.098821    0.000000                     |
 |             4         0.000000    0.000000    0.314159                     |
 +----------------------------------------------------------------------------+
  
 Time to get kmesh              0.095 (sec)
 *============================================================================*
 |                              MEMORY ESTIMATE                               |
 |         Maximum RAM allocated during each phase of the calculation         |
 *============================================================================*
 |                        Disentanglement            8.12 Mb                  |
 |                            Wannierise:            0.63 Mb                  |
 |                          plot_wannier:            0.63 Mb                  |
 *----------------------------------------------------------------------------*
  
 Starting a new Wannier90 calculation ...


 Reading overlaps from graphene.mmn    :  Created on  8Nov2021 at 21:57:35

 Reading projections from graphene.amn :  Created on  8Nov2021 at 21:57:32

 Time to read overlaps          0.242 (sec)

 *------------------------------- DISENTANGLE --------------------------------*
 +----------------------------------------------------------------------------+
 |                              Energy  Windows                               |
 |                              ---------------                               |
 |                   Outer:  -17.72478  to    7.50000  (eV)                   |
 |                   No frozen states were specified                          |
 +----------------------------------------------------------------------------+
   Number of target bands to extract:    2

                   Unitarised projection of Wannier functions                  
                   ------------------------------------------                  
   A_mn = <psi_m|g_n> --> S = A.A^+ --> U = S^-1/2.A
   In dis_project... done
   No inner window (linner = F)

                   Extraction of optimally-connected subspace                  
                   ------------------------------------------                  
 +---------------------------------------------------------------------+<-- DIS
 |  Iter     Omega_I(i-1)      Omega_I(i)      Delta (frac.)    Time   |<-- DIS
 +---------------------------------------------------------------------+<-- DIS
       1       2.03297996       1.98609382       2.361E-02      0.00    <-- DIS
       2       2.00782649       1.97346717       1.741E-02      0.00    <-- DIS
       3       1.98939147       1.96401133       1.292E-02      0.01    <-- DIS
       4       1.97571044       1.95646898       9.835E-03      0.01    <-- DIS
       5       1.96527559       1.95022791       7.716E-03      0.02    <-- DIS
       6       1.95706385       1.94492561       6.241E-03      0.02    <-- DIS
       7       1.95040092       1.94032901       5.191E-03      0.02    <-- DIS
       8       1.94484376       1.93628095       4.422E-03      0.03    <-- DIS
       9       1.94009887       1.93267159       3.843E-03      0.03    <-- DIS
      10       1.93596879       1.92942182       3.393E-03      0.04    <-- DIS
      11       1.93231808       1.92647312       3.034E-03      0.04    <-- DIS
      12       1.92905167       1.92378108       2.740E-03      0.05    <-- DIS
      13       1.92610117       1.92131125       2.493E-03      0.05    <-- DIS
      14       1.92341613       1.91903634       2.282E-03      0.05    <-- DIS
      15       1.92095838       1.91693427       2.099E-03      0.06    <-- DIS
      16       1.91869833       1.91498690       1.938E-03      0.06    <-- DIS
      17       1.91661249       1.91317902       1.795E-03      0.07    <-- DIS
      18       1.91468183       1.91149774       1.666E-03      0.07    <-- DIS
      19       1.91289061       1.90993196       1.549E-03      0.07    <-- DIS
      20       1.91122563       1.90847200       1.443E-03      0.08    <-- DIS
      21       1.90967557       1.90710938       1.346E-03      0.08    <-- DIS
      22       1.90823068       1.90583655       1.256E-03      0.09    <-- DIS
      23       1.90688239       1.90464676       1.174E-03      0.09    <-- DIS
      24       1.90562316       1.90353394       1.098E-03      0.09    <-- DIS
      25       1.90444623       1.90249259       1.027E-03      0.10    <-- DIS
      26       1.90334555       1.90151770       9.613E-04      0.10    <-- DIS
      27       1.90231564       1.90060471       9.002E-04      0.11    <-- DIS
      28       1.90135152       1.89974942       8.433E-04      0.11    <-- DIS
      29       1.90044866       1.89894796       7.903E-04      0.11    <-- DIS
      30       1.89960290       1.89819679       7.408E-04      0.12    <-- DIS
      31       1.89881040       1.89749259       6.945E-04      0.12    <-- DIS
      32       1.89806764       1.89683233       6.512E-04      0.13    <-- DIS
      33       1.89737135       1.89621318       6.108E-04      0.13    <-- DIS
      34       1.89671851       1.89563249       5.729E-04      0.13    <-- DIS
      35       1.89610633       1.89508783       5.374E-04      0.14    <-- DIS
      36       1.89553219       1.89457690       5.042E-04      0.14    <-- DIS
      37       1.89499367       1.89409758       4.731E-04      0.15    <-- DIS
      38       1.89448852       1.89364788       4.439E-04      0.15    <-- DIS
      39       1.89401462       1.89322595       4.166E-04      0.15    <-- DIS
      40       1.89357001       1.89283005       3.909E-04      0.16    <-- DIS
      41       1.89315286       1.89245856       3.669E-04      0.16    <-- DIS
      42       1.89276144       1.89210995       3.443E-04      0.17    <-- DIS
      43       1.89239415       1.89178281       3.232E-04      0.17    <-- DIS
      44       1.89204950       1.89147581       3.033E-04      0.18    <-- DIS
      45       1.89172607       1.89118770       2.847E-04      0.18    <-- DIS
      46       1.89142255       1.89091731       2.672E-04      0.18    <-- DIS
      47       1.89113771       1.89066355       2.508E-04      0.19    <-- DIS
      48       1.89087038       1.89042538       2.354E-04      0.19    <-- DIS
      49       1.89061950       1.89020186       2.210E-04      0.20    <-- DIS
      50       1.89038404       1.88999207       2.074E-04      0.20    <-- DIS
      51       1.89016305       1.88979517       1.947E-04      0.20    <-- DIS
      52       1.88995565       1.88961037       1.827E-04      0.21    <-- DIS
      53       1.88976099       1.88943693       1.715E-04      0.21    <-- DIS
      54       1.88957828       1.88927413       1.610E-04      0.22    <-- DIS
      55       1.88940681       1.88912134       1.511E-04      0.22    <-- DIS
      56       1.88924586       1.88897793       1.418E-04      0.22    <-- DIS
      57       1.88909480       1.88884332       1.331E-04      0.23    <-- DIS
      58       1.88895302       1.88871699       1.250E-04      0.23    <-- DIS
      59       1.88881995       1.88859841       1.173E-04      0.24    <-- DIS
      60       1.88869505       1.88848711       1.101E-04      0.24    <-- DIS
      61       1.88857782       1.88838265       1.033E-04      0.24    <-- DIS
      62       1.88846779       1.88828461       9.701E-05      0.25    <-- DIS
      63       1.88836451       1.88819258       9.105E-05      0.25    <-- DIS
      64       1.88826758       1.88810621       8.547E-05      0.26    <-- DIS
      65       1.88817660       1.88802514       8.022E-05      0.26    <-- DIS
      66       1.88809121       1.88794905       7.530E-05      0.26    <-- DIS
      67       1.88801106       1.88787763       7.068E-05      0.27    <-- DIS
      68       1.88793583       1.88781060       6.634E-05      0.27    <-- DIS
      69       1.88786523       1.88774768       6.227E-05      0.28    <-- DIS
      70       1.88779896       1.88768863       5.844E-05      0.28    <-- DIS
      71       1.88773676       1.88763321       5.486E-05      0.28    <-- DIS
      72       1.88767838       1.88758119       5.149E-05      0.29    <-- DIS
      73       1.88762358       1.88753236       4.833E-05      0.29    <-- DIS
      74       1.88757215       1.88748654       4.536E-05      0.30    <-- DIS
      75       1.88752388       1.88744352       4.258E-05      0.30    <-- DIS
      76       1.88747858       1.88740315       3.996E-05      0.30    <-- DIS
      77       1.88743606       1.88736526       3.751E-05      0.31    <-- DIS
      78       1.88739614       1.88732970       3.520E-05      0.31    <-- DIS
      79       1.88735868       1.88729632       3.304E-05      0.32    <-- DIS
      80       1.88732353       1.88726500       3.101E-05      0.32    <-- DIS
      81       1.88729053       1.88723559       2.911E-05      0.32    <-- DIS
      82       1.88725956       1.88720800       2.732E-05      0.33    <-- DIS
      83       1.88723049       1.88718209       2.564E-05      0.33    <-- DIS
      84       1.88720320       1.88715778       2.407E-05      0.34    <-- DIS
      85       1.88717760       1.88713497       2.259E-05      0.34    <-- DIS
      86       1.88715356       1.88711355       2.120E-05      0.34    <-- DIS
      87       1.88713100       1.88709345       1.990E-05      0.35    <-- DIS
      88       1.88710983       1.88707459       1.868E-05      0.35    <-- DIS
      89       1.88708996       1.88705688       1.753E-05      0.36    <-- DIS
      90       1.88707131       1.88704026       1.645E-05      0.36    <-- DIS
      91       1.88705381       1.88702467       1.544E-05      0.36    <-- DIS
      92       1.88703738       1.88701003       1.449E-05      0.37    <-- DIS
      93       1.88702196       1.88699629       1.360E-05      0.37    <-- DIS
      94       1.88700749       1.88698339       1.277E-05      0.38    <-- DIS
      95       1.88699390       1.88697129       1.198E-05      0.38    <-- DIS
      96       1.88698116       1.88695993       1.125E-05      0.38    <-- DIS
      97       1.88696919       1.88694927       1.056E-05      0.39    <-- DIS
      98       1.88695796       1.88693927       9.907E-06      0.39    <-- DIS
      99       1.88694742       1.88692988       9.299E-06      0.40    <-- DIS
     100       1.88693753       1.88692106       8.727E-06      0.40    <-- DIS
     101       1.88692825       1.88691279       8.191E-06      0.40    <-- DIS
     102       1.88691953       1.88690503       7.688E-06      0.41    <-- DIS
     103       1.88691135       1.88689774       7.215E-06      0.41    <-- DIS
     104       1.88690368       1.88689090       6.772E-06      0.42    <-- DIS
     105       1.88689647       1.88688448       6.356E-06      0.42    <-- DIS
     106       1.88688971       1.88687846       5.965E-06      0.42    <-- DIS
     107       1.88688337       1.88687280       5.599E-06      0.43    <-- DIS
     108       1.88687741       1.88686750       5.255E-06      0.43    <-- DIS
     109       1.88687182       1.88686252       4.932E-06      0.44    <-- DIS
     110       1.88686658       1.88685784       4.629E-06      0.44    <-- DIS
     111       1.88686165       1.88685345       4.344E-06      0.44    <-- DIS
     112       1.88685703       1.88684934       4.077E-06      0.45    <-- DIS
     113       1.88685269       1.88684547       3.827E-06      0.45    <-- DIS
     114       1.88684862       1.88684185       3.591E-06      0.46    <-- DIS
     115       1.88684480       1.88683844       3.371E-06      0.46    <-- DIS
     116       1.88684122       1.88683525       3.164E-06      0.47    <-- DIS
     117       1.88683785       1.88683225       2.969E-06      0.47    <-- DIS
     118       1.88683469       1.88682943       2.787E-06      0.48    <-- DIS
     119       1.88683173       1.88682679       2.615E-06      0.48    <-- DIS
     120       1.88682895       1.88682431       2.455E-06      0.48    <-- DIS
     121       1.88682633       1.88682199       2.304E-06      0.49    <-- DIS
     122       1.88682388       1.88681980       2.162E-06      0.49    <-- DIS
     123       1.88682158       1.88681776       2.029E-06      0.50    <-- DIS
     124       1.88681943       1.88681583       1.905E-06      0.50    <-- DIS
     125       1.88681740       1.88681403       1.788E-06      0.51    <-- DIS
     126       1.88681550       1.88681233       1.678E-06      0.51    <-- DIS
     127       1.88681371       1.88681074       1.575E-06      0.51    <-- DIS
     128       1.88681204       1.88680925       1.478E-06      0.52    <-- DIS
     129       1.88681047       1.88680785       1.387E-06      0.52    <-- DIS
     130       1.88680899       1.88680654       1.302E-06      0.53    <-- DIS
     131       1.88680761       1.88680530       1.222E-06      0.53    <-- DIS
     132       1.88680631       1.88680414       1.147E-06      0.53    <-- DIS
     133       1.88680509       1.88680306       1.076E-06      0.54    <-- DIS
     134       1.88680394       1.88680204       1.010E-06      0.54    <-- DIS
     135       1.88680287       1.88680108       9.479E-07      0.55    <-- DIS
     136       1.88680186       1.88680018       8.896E-07      0.55    <-- DIS
     137       1.88680091       1.88679934       8.349E-07      0.55    <-- DIS
     138       1.88680003       1.88679855       7.836E-07      0.56    <-- DIS
     139       1.88679919       1.88679780       7.354E-07      0.56    <-- DIS
     140       1.88679841       1.88679711       6.902E-07      0.57    <-- DIS
     141       1.88679768       1.88679645       6.478E-07      0.57    <-- DIS
     142       1.88679699       1.88679584       6.080E-07      0.57    <-- DIS
     143       1.88679634       1.88679526       5.706E-07      0.58    <-- DIS
     144       1.88679573       1.88679472       5.355E-07      0.58    <-- DIS
     145       1.88679516       1.88679421       5.026E-07      0.59    <-- DIS
     146       1.88679463       1.88679374       4.717E-07      0.59    <-- DIS
     147       1.88679413       1.88679329       4.427E-07      0.59    <-- DIS
     148       1.88679366       1.88679287       4.155E-07      0.60    <-- DIS
     149       1.88679321       1.88679248       3.900E-07      0.60    <-- DIS
     150       1.88679280       1.88679211       3.660E-07      0.61    <-- DIS
     151       1.88679241       1.88679176       3.435E-07      0.61    <-- DIS
     152       1.88679204       1.88679144       3.224E-07      0.61    <-- DIS
     153       1.88679170       1.88679113       3.026E-07      0.62    <-- DIS
     154       1.88679138       1.88679084       2.840E-07      0.62    <-- DIS
     155       1.88679108       1.88679057       2.665E-07      0.63    <-- DIS
     156       1.88679079       1.88679032       2.501E-07      0.63    <-- DIS
     157       1.88679053       1.88679008       2.348E-07      0.63    <-- DIS
     158       1.88679028       1.88678986       2.203E-07      0.64    <-- DIS
     159       1.88679004       1.88678965       2.068E-07      0.64    <-- DIS
     160       1.88678982       1.88678946       1.941E-07      0.65    <-- DIS
     161       1.88678962       1.88678927       1.821E-07      0.65    <-- DIS
     162       1.88678942       1.88678910       1.709E-07      0.65    <-- DIS
     163       1.88678924       1.88678894       1.604E-07      0.66    <-- DIS
     164       1.88678907       1.88678879       1.506E-07      0.66    <-- DIS
     165       1.88678891       1.88678864       1.413E-07      0.67    <-- DIS
     166       1.88678876       1.88678851       1.326E-07      0.67    <-- DIS
     167       1.88678862       1.88678838       1.245E-07      0.67    <-- DIS
     168       1.88678849       1.88678827       1.168E-07      0.68    <-- DIS
     169       1.88678836       1.88678816       1.096E-07      0.68    <-- DIS
     170       1.88678825       1.88678805       1.029E-07      0.69    <-- DIS
     171       1.88678814       1.88678795       9.658E-08      0.69    <-- DIS
     172       1.88678803       1.88678786       9.064E-08      0.69    <-- DIS
     173       1.88678794       1.88678778       8.507E-08      0.70    <-- DIS
     174       1.88678785       1.88678770       7.984E-08      0.70    <-- DIS
     175       1.88678776       1.88678762       7.493E-08      0.71    <-- DIS
     176       1.88678768       1.88678755       7.033E-08      0.71    <-- DIS
     177       1.88678761       1.88678748       6.600E-08      0.71    <-- DIS
     178       1.88678754       1.88678742       6.195E-08      0.72    <-- DIS
     179       1.88678747       1.88678736       5.814E-08      0.72    <-- DIS
     180       1.88678741       1.88678731       5.457E-08      0.73    <-- DIS
     181       1.88678735       1.88678725       5.121E-08      0.73    <-- DIS
     182       1.88678730       1.88678721       4.806E-08      0.73    <-- DIS
     183       1.88678725       1.88678716       4.511E-08      0.74    <-- DIS
     184       1.88678720       1.88678712       4.234E-08      0.74    <-- DIS
     185       1.88678715       1.88678708       3.973E-08      0.75    <-- DIS
     186       1.88678711       1.88678704       3.729E-08      0.75    <-- DIS
     187       1.88678707       1.88678700       3.500E-08      0.75    <-- DIS
     188       1.88678703       1.88678697       3.285E-08      0.76    <-- DIS
     189       1.88678700       1.88678694       3.083E-08      0.76    <-- DIS
     190       1.88678697       1.88678691       2.893E-08      0.77    <-- DIS
     191       1.88678693       1.88678688       2.715E-08      0.77    <-- DIS
     192       1.88678691       1.88678686       2.548E-08      0.77    <-- DIS
     193       1.88678688       1.88678683       2.392E-08      0.78    <-- DIS
     194       1.88678685       1.88678681       2.245E-08      0.78    <-- DIS
     195       1.88678683       1.88678679       2.107E-08      0.79    <-- DIS
     196       1.88678681       1.88678677       1.977E-08      0.79    <-- DIS
     197       1.88678679       1.88678675       1.856E-08      0.79    <-- DIS
     198       1.88678677       1.88678673       1.742E-08      0.80    <-- DIS
     199       1.88678675       1.88678672       1.635E-08      0.80    <-- DIS
     200       1.88678673       1.88678670       1.534E-08      0.81    <-- DIS
     201       1.88678671       1.88678669       1.440E-08      0.81    <-- DIS
     202       1.88678670       1.88678667       1.351E-08      0.81    <-- DIS
     203       1.88678668       1.88678666       1.268E-08      0.82    <-- DIS
     204       1.88678667       1.88678665       1.190E-08      0.82    <-- DIS
     205       1.88678666       1.88678664       1.117E-08      0.83    <-- DIS
     206       1.88678665       1.88678663       1.048E-08      0.83    <-- DIS
     207       1.88678664       1.88678662       9.840E-09      0.83    <-- DIS
     208       1.88678662       1.88678661       9.235E-09      0.84    <-- DIS
     209       1.88678661       1.88678660       8.667E-09      0.84    <-- DIS
     210       1.88678661       1.88678659       8.134E-09      0.85    <-- DIS
     211       1.88678660       1.88678658       7.634E-09      0.85    <-- DIS
     212       1.88678659       1.88678658       7.165E-09      0.85    <-- DIS
     213       1.88678658       1.88678657       6.724E-09      0.86    <-- DIS
     214       1.88678657       1.88678656       6.311E-09      0.86    <-- DIS
     215       1.88678657       1.88678656       5.923E-09      0.87    <-- DIS
     216       1.88678656       1.88678655       5.559E-09      0.87    <-- DIS
     217       1.88678656       1.88678655       5.217E-09      0.87    <-- DIS
     218       1.88678655       1.88678654       4.897E-09      0.88    <-- DIS
     219       1.88678654       1.88678654       4.596E-09      0.88    <-- DIS
     220       1.88678654       1.88678653       4.313E-09      0.89    <-- DIS
     221       1.88678653       1.88678653       4.048E-09      0.89    <-- DIS
     222       1.88678653       1.88678652       3.799E-09      0.89    <-- DIS
     223       1.88678653       1.88678652       3.565E-09      0.90    <-- DIS
     224       1.88678652       1.88678652       3.346E-09      0.90    <-- DIS
     225       1.88678652       1.88678651       3.141E-09      0.91    <-- DIS
     226       1.88678652       1.88678651       2.948E-09      0.91    <-- DIS
     227       1.88678651       1.88678651       2.766E-09      0.91    <-- DIS
     228       1.88678651       1.88678650       2.596E-09      0.92    <-- DIS
     229       1.88678651       1.88678650       2.437E-09      0.92    <-- DIS
     230       1.88678650       1.88678650       2.287E-09      0.93    <-- DIS
     231       1.88678650       1.88678650       2.146E-09      0.93    <-- DIS
     232       1.88678650       1.88678650       2.014E-09      0.93    <-- DIS
     233       1.88678650       1.88678649       1.891E-09      0.94    <-- DIS
     234       1.88678650       1.88678649       1.774E-09      0.94    <-- DIS
     235       1.88678649       1.88678649       1.665E-09      0.95    <-- DIS
     236       1.88678649       1.88678649       1.563E-09      0.95    <-- DIS
     237       1.88678649       1.88678649       1.467E-09      0.95    <-- DIS
     238       1.88678649       1.88678649       1.377E-09      0.96    <-- DIS
     239       1.88678649       1.88678648       1.292E-09      0.96    <-- DIS
     240       1.88678649       1.88678648       1.213E-09      0.97    <-- DIS
     241       1.88678648       1.88678648       1.138E-09      0.97    <-- DIS
     242       1.88678648       1.88678648       1.068E-09      0.97    <-- DIS
     243       1.88678648       1.88678648       1.002E-09      0.98    <-- DIS
     244       1.88678648       1.88678648       9.408E-10      0.98    <-- DIS
     245       1.88678648       1.88678648       8.829E-10      0.99    <-- DIS
     246       1.88678648       1.88678648       8.287E-10      0.99    <-- DIS
     247       1.88678648       1.88678648       7.777E-10      0.99    <-- DIS
     248       1.88678648       1.88678648       7.299E-10      1.00    <-- DIS
     249       1.88678648       1.88678648       6.850E-10      1.00    <-- DIS
     250       1.88678648       1.88678647       6.429E-10      1.01    <-- DIS
     251       1.88678648       1.88678647       6.034E-10      1.01    <-- DIS
     252       1.88678647       1.88678647       5.663E-10      1.01    <-- DIS
     253       1.88678647       1.88678647       5.315E-10      1.02    <-- DIS
     254       1.88678647       1.88678647       4.988E-10      1.02    <-- DIS
     255       1.88678647       1.88678647       4.682E-10      1.03    <-- DIS
     256       1.88678647       1.88678647       4.394E-10      1.03    <-- DIS
     257       1.88678647       1.88678647       4.124E-10      1.03    <-- DIS
     258       1.88678647       1.88678647       3.870E-10      1.04    <-- DIS
     259       1.88678647       1.88678647       3.632E-10      1.04    <-- DIS
     260       1.88678647       1.88678647       3.409E-10      1.05    <-- DIS
     261       1.88678647       1.88678647       3.199E-10      1.05    <-- DIS
     262       1.88678647       1.88678647       3.003E-10      1.05    <-- DIS
     263       1.88678647       1.88678647       2.818E-10      1.06    <-- DIS
     264       1.88678647       1.88678647       2.645E-10      1.06    <-- DIS
     265       1.88678647       1.88678647       2.482E-10      1.07    <-- DIS
     266       1.88678647       1.88678647       2.330E-10      1.07    <-- DIS
     267       1.88678647       1.88678647       2.186E-10      1.07    <-- DIS
     268       1.88678647       1.88678647       2.052E-10      1.08    <-- DIS
     269       1.88678647       1.88678647       1.926E-10      1.08    <-- DIS
     270       1.88678647       1.88678647       1.808E-10      1.09    <-- DIS
     271       1.88678647       1.88678647       1.696E-10      1.09    <-- DIS
     272       1.88678647       1.88678647       1.592E-10      1.09    <-- DIS
     273       1.88678647       1.88678647       1.494E-10      1.10    <-- DIS
     274       1.88678647       1.88678647       1.402E-10      1.10    <-- DIS
     275       1.88678647       1.88678647       1.316E-10      1.11    <-- DIS
     276       1.88678647       1.88678647       1.235E-10      1.11    <-- DIS
     277       1.88678647       1.88678647       1.159E-10      1.11    <-- DIS
     278       1.88678647       1.88678647       1.088E-10      1.12    <-- DIS
     279       1.88678647       1.88678647       1.021E-10      1.12    <-- DIS
     280       1.88678647       1.88678647       9.584E-11      1.13    <-- DIS
     281       1.88678647       1.88678647       8.995E-11      1.13    <-- DIS
     282       1.88678647       1.88678647       8.442E-11      1.13    <-- DIS

             <<<      Delta < 1.000E-10  over  3 iterations     >>>
             <<< Disentanglement convergence criteria satisfied >>>

        Final Omega_I     1.88678647 (Ang^2)

 +----------------------------------------------------------------------------+

 Time to disentangle bands      1.146 (sec)

 Writing checkpoint file graphene.chk... done

 
 *------------------------------- WANNIERISE ---------------------------------*
 +--------------------------------------------------------------------+<-- CONV
 | Iter  Delta Spread     RMS Gradient      Spread (Ang^2)      Time  |<-- CONV
 +--------------------------------------------------------------------+<-- CONV
 
 ------------------------------------------------------------------------------
 Initial State
  WF centre and spread    1  (  0.000000, -0.000000,  9.999999 )     0.95039661
  WF centre and spread    2  (  1.223630,  0.706463,  9.999999 )     0.95039725
  Sum of centres and spreads (  1.223630,  0.706463, 19.999998 )     1.90079386
 
      0     0.190E+01     0.0000000000        1.9007932051       1.14  <-- CONV
        O_D=      0.0119539 O_OD=      0.0020529 O_TOT=      1.9007932 <-- SPRD
 ------------------------------------------------------------------------------
 Cycle:      1
  WF centre and spread    1  (  0.000000, -0.000000,  9.999999 )     0.95026595
  WF centre and spread    2  (  1.223630,  0.706463,  9.999999 )     0.95026659
  Sum of centres and spreads (  1.223630,  0.706463, 19.999998 )     1.90053254
 
      1    -0.261E-03     0.0101335585        1.9005318796       1.15  <-- CONV
        O_D=      0.0116925 O_OD=      0.0020529 O_TOT=      1.9005319 <-- SPRD
 Delta: O_D= -0.2613254E-03 O_OD= -0.1409151E-10 O_TOT= -0.2613254E-03 <-- DLTA
 ------------------------------------------------------------------------------
 Cycle:      2
  WF centre and spread    1  (  0.000000, -0.000000,  9.999999 )     0.95024166
  WF centre and spread    2  (  1.223630,  0.706463,  9.999999 )     0.95024231
  Sum of centres and spreads (  1.223630,  0.706463, 19.999998 )     1.90048397
 
      2    -0.486E-04     0.0092721844        1.9004833109       1.15  <-- CONV
        O_D=      0.0116440 O_OD=      0.0020529 O_TOT=      1.9004833 <-- SPRD
 Delta: O_D= -0.4856876E-04 O_OD= -0.5471086E-11 O_TOT= -0.4856876E-04 <-- DLTA
 ------------------------------------------------------------------------------
 Cycle:      3
  WF centre and spread    1  (  0.000000, -0.000000,  9.999999 )     0.95023851
  WF centre and spread    2  (  1.223630,  0.706463,  9.999999 )     0.95023915
  Sum of centres and spreads (  1.223630,  0.706463, 19.999998 )     1.90047766
 
      3    -0.631E-05     0.0029042896        1.9004770034       1.15  <-- CONV
        O_D=      0.0116377 O_OD=      0.0020529 O_TOT=      1.9004770 <-- SPRD
 Delta: O_D= -0.6307484E-05 O_OD= -0.3786028E-11 O_TOT= -0.6307487E-05 <-- DLTA
 ------------------------------------------------------------------------------
 Cycle:      4
  WF centre and spread    1  (  0.000000, -0.000000,  9.999999 )     0.95023817
  WF centre and spread    2  (  1.223630,  0.706463,  9.999999 )     0.95023881
  Sum of centres and spreads (  1.223630,  0.706463, 19.999998 )     1.90047697
 
      4    -0.688E-06     0.0010371229        1.9004763156       1.16  <-- CONV
        O_D=      0.0116370 O_OD=      0.0020529 O_TOT=      1.9004763 <-- SPRD
 Delta: O_D= -0.6877718E-06 O_OD= -0.2859844E-11 O_TOT= -0.6877746E-06 <-- DLTA
 ------------------------------------------------------------------------------
 Cycle:      5
  WF centre and spread    1  (  0.000000, -0.000000,  9.999999 )     0.95023810
  WF centre and spread    2  (  1.223630,  0.706463,  9.999999 )     0.95023874
  Sum of centres and spreads (  1.223630,  0.706463, 19.999998 )     1.90047685
 
      5    -0.129E-06     0.0004053755        1.9004761869       1.16  <-- CONV
        O_D=      0.0116368 O_OD=      0.0020529 O_TOT=      1.9004762 <-- SPRD
 Delta: O_D= -0.1286717E-06 O_OD= -0.3346891E-11 O_TOT= -0.1286750E-06 <-- DLTA
 ------------------------------------------------------------------------------
 Cycle:      6
  WF centre and spread    1  (  0.000000, -0.000000,  9.999999 )     0.95023809
  WF centre and spread    2  (  1.223630,  0.706463,  9.999999 )     0.95023873
  Sum of centres and spreads (  1.223630,  0.706463, 19.999998 )     1.90047682
 
      6    -0.241E-07     0.0001985870        1.9004761629       1.16  <-- CONV
        O_D=      0.0116368 O_OD=      0.0020529 O_TOT=      1.9004762 <-- SPRD
 Delta: O_D= -0.2407489E-07 O_OD= -0.2668935E-11 O_TOT= -0.2407756E-07 <-- DLTA
 ------------------------------------------------------------------------------
 Cycle:      7
  WF centre and spread    1  (  0.000000, -0.000000,  9.999999 )     0.95023809
  WF centre and spread    2  (  1.223630,  0.706463,  9.999999 )     0.95023873
  Sum of centres and spreads (  1.223630,  0.706463, 19.999998 )     1.90047682
 
      7    -0.683E-09     0.0000362283        1.9004761622       1.16  <-- CONV
        O_D=      0.0116368 O_OD=      0.0020529 O_TOT=      1.9004762 <-- SPRD
 Delta: O_D= -0.6810485E-09 O_OD= -0.1670558E-11 O_TOT= -0.6827192E-09 <-- DLTA
 ------------------------------------------------------------------------------
 Cycle:      8
  WF centre and spread    1  (  0.000000, -0.000000,  9.999999 )     0.95023809
  WF centre and spread    2  (  1.223630,  0.706463,  9.999999 )     0.95023873
  Sum of centres and spreads (  1.223630,  0.706463, 19.999998 )     1.90047682
 
      8    -0.434E-10     0.0000090713        1.9004761621       1.17  <-- CONV
        O_D=      0.0116368 O_OD=      0.0020529 O_TOT=      1.9004762 <-- SPRD
 Delta: O_D= -0.4173520E-10 O_OD= -0.1711802E-11 O_TOT= -0.4344680E-10 <-- DLTA
 ------------------------------------------------------------------------------
 Cycle:      9
  WF centre and spread    1  (  0.000000, -0.000000,  9.999999 )     0.95023809
  WF centre and spread    2  (  1.223630,  0.706463,  9.999999 )     0.95023873
  Sum of centres and spreads (  1.223630,  0.706463, 19.999998 )     1.90047682
 
      9    -0.480E-13     0.0000024077        1.9004761621       1.17  <-- CONV
        O_D=      0.0116368 O_OD=      0.0020529 O_TOT=      1.9004762 <-- SPRD
 Delta: O_D= -0.3471702E-13 O_OD= -0.1313619E-13 O_TOT= -0.4796163E-13 <-- DLTA
 ------------------------------------------------------------------------------
 Cycle:     10
  WF centre and spread    1  (  0.000000, -0.000000,  9.999999 )     0.95023809
  WF centre and spread    2  (  1.223630,  0.706463,  9.999999 )     0.95023873
  Sum of centres and spreads (  1.223630,  0.706463, 19.999998 )     1.90047682
 
     10    -0.939E-13     0.0000023980        1.9004761621       1.17  <-- CONV
        O_D=      0.0116368 O_OD=      0.0020529 O_TOT=      1.9004762 <-- SPRD
 Delta: O_D= -0.6859097E-13 O_OD= -0.2522678E-13 O_TOT= -0.9392487E-13 <-- DLTA
 ------------------------------------------------------------------------------
 Cycle:     11
  WF centre and spread    1  (  0.000000, -0.000000,  9.999999 )     0.95023809
  WF centre and spread    2  (  1.223630,  0.706463,  9.999999 )     0.95023873
  Sum of centres and spreads (  1.223630,  0.706463, 19.999998 )     1.90047682
 
     11    -0.506E-11     0.0000023779        1.9004761621       1.17  <-- CONV
        O_D=      0.0116368 O_OD=      0.0020529 O_TOT=      1.9004762 <-- SPRD
 Delta: O_D= -0.2992204E-11 O_OD= -0.2066298E-11 O_TOT= -0.5058398E-11 <-- DLTA
 ------------------------------------------------------------------------------
 Cycle:     12
  WF centre and spread    1  (  0.000000, -0.000000,  9.999999 )     0.95023809
  WF centre and spread    2  (  1.223630,  0.706463,  9.999999 )     0.95023873
  Sum of centres and spreads (  1.223630,  0.706463, 19.999998 )     1.90047682
 
     12    -0.400E-13     0.0000016152        1.9004761621       1.17  <-- CONV
        O_D=      0.0116368 O_OD=      0.0020529 O_TOT=      1.9004762 <-- SPRD
 Delta: O_D= -0.1174061E-13 O_OD= -0.2825474E-13 O_TOT= -0.3996803E-13 <-- DLTA
 ------------------------------------------------------------------------------
 Cycle:     13
  WF centre and spread    1  (  0.000000, -0.000000,  9.999999 )     0.95023809
  WF centre and spread    2  (  1.223630,  0.706463,  9.999999 )     0.95023873
  Sum of centres and spreads (  1.223630,  0.706463, 19.999998 )     1.90047682
 
     13    -0.213E-13     0.0000016152        1.9004761621       1.18  <-- CONV
        O_D=      0.0116368 O_OD=      0.0020529 O_TOT=      1.9004762 <-- SPRD
 Delta: O_D= -0.9646797E-14 O_OD= -0.1159272E-13 O_TOT= -0.2131628E-13 <-- DLTA
 ------------------------------------------------------------------------------
 Cycle:     14
  WF centre and spread    1  (  0.000000, -0.000000,  9.999999 )     0.95023809
  WF centre and spread    2  (  1.223630,  0.706463,  9.999999 )     0.95023873
  Sum of centres and spreads (  1.223630,  0.706463, 19.999998 )     1.90047682
 
     14    -0.420E-13     0.0000016100        1.9004761621       1.18  <-- CONV
        O_D=      0.0116368 O_OD=      0.0020529 O_TOT=      1.9004762 <-- SPRD
 Delta: O_D= -0.1891196E-13 O_OD= -0.2310825E-13 O_TOT= -0.4196643E-13 <-- DLTA
 ------------------------------------------------------------------------------
 Cycle:     15
  WF centre and spread    1  (  0.000000, -0.000000,  9.999999 )     0.95023809
  WF centre and spread    2  (  1.223630,  0.706463,  9.999999 )     0.95023873
  Sum of centres and spreads (  1.223630,  0.706463, 19.999998 )     1.90047682
 
     15    -0.620E-13     0.0000015998        1.9004761621       1.18  <-- CONV
        O_D=      0.0116368 O_OD=      0.0020529 O_TOT=      1.9004762 <-- SPRD
 Delta: O_D= -0.2753874E-13 O_OD= -0.3439046E-13 O_TOT= -0.6195044E-13 <-- DLTA
 ------------------------------------------------------------------------------
 Cycle:     16
  WF centre and spread    1  (  0.000000, -0.000000,  9.999999 )     0.95023809
  WF centre and spread    2  (  1.223630,  0.706463,  9.999999 )     0.95023873
  Sum of centres and spreads (  1.223630,  0.706463, 19.999998 )     1.90047682
 
     16    -0.806E-13     0.0000015850        1.9004761621       1.18  <-- CONV
        O_D=      0.0116368 O_OD=      0.0020529 O_TOT=      1.9004762 <-- SPRD
 Delta: O_D= -0.3524438E-13 O_OD= -0.4531141E-13 O_TOT= -0.8060219E-13 <-- DLTA
 ------------------------------------------------------------------------------
 Cycle:     17
  WF centre and spread    1  (  0.000000, -0.000000,  9.999999 )     0.95023809
  WF centre and spread    2  (  1.223630,  0.706463,  9.999999 )     0.95023873
  Sum of centres and spreads (  1.223630,  0.706463, 19.999998 )     1.90047682
 
     17    -0.320E-11     0.0000015661        1.9004761621       1.18  <-- CONV
        O_D=      0.0116368 O_OD=      0.0020529 O_TOT=      1.9004762 <-- SPRD
 Delta: O_D= -0.5265406E-13 O_OD= -0.3145470E-11 O_TOT= -0.3198108E-11 <-- DLTA
 ------------------------------------------------------------------------------
 Cycle:     18
  WF centre and spread    1  (  0.000000, -0.000000,  9.999999 )     0.95023809
  WF centre and spread    2  (  1.223630,  0.706463,  9.999999 )     0.95023873
  Sum of centres and spreads (  1.223630,  0.706463, 19.999998 )     1.90047682
 
     18    -0.570E-12     0.0000019534        1.9004761621       1.19  <-- CONV
        O_D=      0.0116368 O_OD=      0.0020529 O_TOT=      1.9004762 <-- SPRD
 Delta: O_D=  0.1250328E-11 O_OD= -0.1819875E-11 O_TOT= -0.5695444E-12 <-- DLTA
 ------------------------------------------------------------------------------
 Cycle:     19
  WF centre and spread    1  (  0.000000, -0.000000,  9.999999 )     0.95023809
  WF centre and spread    2  (  1.223630,  0.706463,  9.999999 )     0.95023873
  Sum of centres and spreads (  1.223630,  0.706463, 19.999998 )     1.90047682
 
     19    -0.588E-13     0.0000026946        1.9004761621       1.19  <-- CONV
        O_D=      0.0116368 O_OD=      0.0020529 O_TOT=      1.9004762 <-- SPRD
 Delta: O_D= -0.4871797E-13 O_OD= -0.1015073E-13 O_TOT= -0.5884182E-13 <-- DLTA
 ------------------------------------------------------------------------------
 Cycle:     20
  WF centre and spread    1  (  0.000000, -0.000000,  9.999999 )     0.95023809
  WF centre and spread    2  (  1.223630,  0.706463,  9.999999 )     0.95023873
  Sum of centres and spreads (  1.223630,  0.706463, 19.999998 )     1.90047682
 
     20    -0.333E-11     0.0000026710        1.9004761621       1.19  <-- CONV
        O_D=      0.0116368 O_OD=      0.0020529 O_TOT=      1.9004762 <-- SPRD
 Delta: O_D= -0.2189693E-11 O_OD= -0.1136130E-11 O_TOT= -0.3325784E-11 <-- DLTA
 ------------------------------------------------------------------------------
 Cycle:     21
  WF centre and spread    1  (  0.000000, -0.000000,  9.999999 )     0.95023809
  WF centre and spread    2  (  1.223630,  0.706463,  9.999999 )     0.95023873
  Sum of centres and spreads (  1.223630,  0.706463, 19.999998 )     1.90047682
 
     21    -0.133E-13     0.0000012621        1.9004761621       1.19  <-- CONV
        O_D=      0.0116368 O_OD=      0.0020529 O_TOT=      1.9004762 <-- SPRD
 Delta: O_D=  0.1085937E-14 O_OD= -0.1424512E-13 O_TOT= -0.1332268E-13 <-- DLTA
 ------------------------------------------------------------------------------
 Cycle:     22
  WF centre and spread    1  (  0.000000, -0.000000,  9.999999 )     0.95023809
  WF centre and spread    2  (  1.223630,  0.706463,  9.999999 )     0.95023873
  Sum of centres and spreads (  1.223630,  0.706463, 19.999998 )     1.90047682
 
     22    -0.260E-13     0.0000012639        1.9004761621       1.19  <-- CONV
        O_D=      0.0116368 O_OD=      0.0020529 O_TOT=      1.9004762 <-- SPRD
 Delta: O_D= -0.2128506E-14 O_OD= -0.2410051E-13 O_TOT= -0.2597922E-13 <-- DLTA
 ------------------------------------------------------------------------------
 Cycle:     23
  WF centre and spread    1  (  0.000000, -0.000000,  9.999999 )     0.95023809
  WF centre and spread    2  (  1.223630,  0.706463,  9.999999 )     0.95023873
  Sum of centres and spreads (  1.223630,  0.706463, 19.999998 )     1.90047682
 
     23    -0.393E-13     0.0000012627        1.9004761621       1.20  <-- CONV
        O_D=      0.0116368 O_OD=      0.0020529 O_TOT=      1.9004762 <-- SPRD
 Delta: O_D= -0.5270090E-14 O_OD= -0.3386180E-13 O_TOT= -0.3930190E-13 <-- DLTA
 ------------------------------------------------------------------------------
 Cycle:     24
  WF centre and spread    1  (  0.000000, -0.000000,  9.999999 )     0.95023809
  WF centre and spread    2  (  1.223630,  0.706463,  9.999999 )     0.95023873
  Sum of centres and spreads (  1.223630,  0.706463, 19.999998 )     1.90047682
 
     24    -0.515E-13     0.0000012586        1.9004761621       1.20  <-- CONV
        O_D=      0.0116368 O_OD=      0.0020529 O_TOT=      1.9004762 <-- SPRD
 Delta: O_D= -0.8180956E-14 O_OD= -0.4342186E-13 O_TOT= -0.5151435E-13 <-- DLTA
 ------------------------------------------------------------------------------
 Cycle:     25
  WF centre and spread    1  (  0.000000, -0.000000,  9.999999 )     0.95023809
  WF centre and spread    2  (  1.223630,  0.706463,  9.999999 )     0.95023873
  Sum of centres and spreads (  1.223630,  0.706463, 19.999998 )     1.90047682
 
     25    -0.127E-13     0.0000012517        1.9004761621       1.20  <-- CONV
        O_D=      0.0116368 O_OD=      0.0020529 O_TOT=      1.9004762 <-- SPRD
 Delta: O_D= -0.2976785E-14 O_OD= -0.9789045E-14 O_TOT= -0.1265654E-13 <-- DLTA
 ------------------------------------------------------------------------------
 Cycle:     26
  WF centre and spread    1  (  0.000000, -0.000000,  9.999999 )     0.95023809
  WF centre and spread    2  (  1.223630,  0.706463,  9.999999 )     0.95023873
  Sum of centres and spreads (  1.223630,  0.706463, 19.999998 )     1.90047682
 
     26    -0.253E-13     0.0000012489        1.9004761621       1.20  <-- CONV
        O_D=      0.0116368 O_OD=      0.0020529 O_TOT=      1.9004762 <-- SPRD
 Delta: O_D= -0.5780099E-14 O_OD= -0.1954079E-13 O_TOT= -0.2531308E-13 <-- DLTA
 ------------------------------------------------------------------------------
 Cycle:     27
  WF centre and spread    1  (  0.000000, -0.000000,  9.999999 )     0.95023809
  WF centre and spread    2  (  1.223630,  0.706463,  9.999999 )     0.95023873
  Sum of centres and spreads (  1.223630,  0.706463, 19.999998 )     1.90047682
 
     27    -0.377E-13     0.0000012434        1.9004761621       1.20  <-- CONV
        O_D=      0.0116368 O_OD=      0.0020529 O_TOT=      1.9004762 <-- SPRD
 Delta: O_D= -0.8376980E-14 O_OD= -0.2914466E-13 O_TOT= -0.3774758E-13 <-- DLTA
 ------------------------------------------------------------------------------
 Cycle:     28
  WF centre and spread    1  (  0.000000, -0.000000,  9.999999 )     0.95023809
  WF centre and spread    2  (  1.223630,  0.706463,  9.999999 )     0.95023873
  Sum of centres and spreads (  1.223630,  0.706463, 19.999998 )     1.90047682
 
     28    -0.491E-13     0.0000012355        1.9004761621       1.20  <-- CONV
        O_D=      0.0116368 O_OD=      0.0020529 O_TOT=      1.9004762 <-- SPRD
 Delta: O_D= -0.1068937E-13 O_OD= -0.3853645E-13 O_TOT= -0.4907186E-13 <-- DLTA
 ------------------------------------------------------------------------------
 Cycle:     29
  WF centre and spread    1  (  0.000000, -0.000000,  9.999999 )     0.95023809
  WF centre and spread    2  (  1.223630,  0.706463,  9.999999 )     0.95023873
  Sum of centres and spreads (  1.223630,  0.706463, 19.999998 )     1.90047682
 
     29    -0.602E-13     0.0000012255        1.9004761621       1.21  <-- CONV
        O_D=      0.0116368 O_OD=      0.0020529 O_TOT=      1.9004762 <-- SPRD
 Delta: O_D= -0.1246052E-13 O_OD= -0.4764765E-13 O_TOT= -0.6017409E-13 <-- DLTA
 ------------------------------------------------------------------------------
 Cycle:     30
  WF centre and spread    1  (  0.000000, -0.000000,  9.999999 )     0.95023809
  WF centre and spread    2  (  1.223630,  0.706463,  9.999999 )     0.95023873
  Sum of centres and spreads (  1.223630,  0.706463, 19.999998 )     1.90047682
 
     30    -0.286E-11     0.0000012138        1.9004761621       1.21  <-- CONV
        O_D=      0.0116368 O_OD=      0.0020529 O_TOT=      1.9004762 <-- SPRD
 Delta: O_D=  0.8838156E-12 O_OD= -0.3745902E-11 O_TOT= -0.2862155E-11 <-- DLTA
 ------------------------------------------------------------------------------
 Cycle:     31
  WF centre and spread    1  (  0.000000, -0.000000,  9.999999 )     0.95023809
  WF centre and spread    2  (  1.223630,  0.706463,  9.999999 )     0.95023873
  Sum of centres and spreads (  1.223630,  0.706463, 19.999998 )     1.90047682
 
     31    -0.342E-13     0.0000020555        1.9004761621       1.21  <-- CONV
        O_D=      0.0116368 O_OD=      0.0020529 O_TOT=      1.9004762 <-- SPRD
 Delta: O_D= -0.2556115E-13 O_OD= -0.8699205E-14 O_TOT= -0.3419487E-13 <-- DLTA
 ------------------------------------------------------------------------------
 Cycle:     32
  WF centre and spread    1  (  0.000000, -0.000000,  9.999999 )     0.95023809
  WF centre and spread    2  (  1.223630,  0.706463,  9.999999 )     0.95023873
  Sum of centres and spreads (  1.223630,  0.706463, 19.999998 )     1.90047682
 
     32    -0.191E-11     0.0000020387        1.9004761621       1.21  <-- CONV
        O_D=      0.0116368 O_OD=      0.0020529 O_TOT=      1.9004762 <-- SPRD
 Delta: O_D= -0.5690119E-12 O_OD= -0.1339416E-11 O_TOT= -0.1908473E-11 <-- DLTA
 ------------------------------------------------------------------------------
 Cycle:     33
  WF centre and spread    1  (  0.000000, -0.000000,  9.999999 )     0.95023809
  WF centre and spread    2  (  1.223630,  0.706463,  9.999999 )     0.95023873
  Sum of centres and spreads (  1.223630,  0.706463, 19.999998 )     1.90047682
 
     33    -0.955E-14     0.0000016471        1.9004761621       1.22  <-- CONV
        O_D=      0.0116368 O_OD=      0.0020529 O_TOT=      1.9004762 <-- SPRD
 Delta: O_D=  0.9594756E-14 O_OD= -0.1933566E-13 O_TOT= -0.9547918E-14 <-- DLTA
 ------------------------------------------------------------------------------
 Cycle:     34
  WF centre and spread    1  (  0.000000, -0.000000,  9.999999 )     0.95023809
  WF centre and spread    2  (  1.223630,  0.706463,  9.999999 )     0.95023873
  Sum of centres and spreads (  1.223630,  0.706463, 19.999998 )     1.90047682
 
     34    -0.322E-13     0.0000016553        1.9004761621       1.22  <-- CONV
        O_D=      0.0116368 O_OD=      0.0020529 O_TOT=      1.9004762 <-- SPRD
 Delta: O_D= -0.4302114E-14 O_OD= -0.2782453E-13 O_TOT= -0.3219647E-13 <-- DLTA
 ------------------------------------------------------------------------------
 Cycle:     35
  WF centre and spread    1  (  0.000000, -0.000000,  9.999999 )     0.95023809
  WF centre and spread    2  (  1.223630,  0.706463,  9.999999 )     0.95023873
  Sum of centres and spreads (  1.223630,  0.706463, 19.999998 )     1.90047682
 
     35    -0.542E-13     0.0000016524        1.9004761621       1.22  <-- CONV
        O_D=      0.0116368 O_OD=      0.0020529 O_TOT=      1.9004762 <-- SPRD
 Delta: O_D= -0.1810010E-13 O_OD= -0.3602544E-13 O_TOT= -0.5417888E-13 <-- DLTA
 ------------------------------------------------------------------------------
 Cycle:     36
  WF centre and spread    1  (  0.000000, -0.000000,  9.999999 )     0.95023809
  WF centre and spread    2  (  1.223630,  0.706463,  9.999999 )     0.95023873
  Sum of centres and spreads (  1.223630,  0.706463, 19.999998 )     1.90047682
 
     36    -0.325E-11     0.0000016381        1.9004761621       1.22  <-- CONV
        O_D=      0.0116368 O_OD=      0.0020529 O_TOT=      1.9004762 <-- SPRD
 Delta: O_D= -0.4630133E-12 O_OD= -0.2790462E-11 O_TOT= -0.3253620E-11 <-- DLTA
 ------------------------------------------------------------------------------
 Cycle:     37
  WF centre and spread    1  (  0.000000, -0.000000,  9.999999 )     0.95023809
  WF centre and spread    2  (  1.223630,  0.706463,  9.999999 )     0.95023873
  Sum of centres and spreads (  1.223630,  0.706463, 19.999998 )     1.90047682
 
     37    -0.129E-13     0.0000012630        1.9004761621       1.22  <-- CONV
        O_D=      0.0116368 O_OD=      0.0020529 O_TOT=      1.9004762 <-- SPRD
 Delta: O_D= -0.5415807E-14 O_OD= -0.7511353E-14 O_TOT= -0.1287859E-13 <-- DLTA
 ------------------------------------------------------------------------------
 Cycle:     38
  WF centre and spread    1  (  0.000000, -0.000000,  9.999999 )     0.95023809
  WF centre and spread    2  (  1.223630,  0.706463,  9.999999 )     0.95023873
  Sum of centres and spreads (  1.223630,  0.706463, 19.999998 )     1.90047682
 
     38    -0.255E-13     0.0000012573        1.9004761621       1.22  <-- CONV
        O_D=      0.0116368 O_OD=      0.0020529 O_TOT=      1.9004762 <-- SPRD
 Delta: O_D= -0.1067549E-13 O_OD= -0.1495722E-13 O_TOT= -0.2553513E-13 <-- DLTA
 ------------------------------------------------------------------------------
 Cycle:     39
  WF centre and spread    1  (  0.000000, -0.000000,  9.999999 )     0.95023809
  WF centre and spread    2  (  1.223630,  0.706463,  9.999999 )     0.95023873
  Sum of centres and spreads (  1.223630,  0.706463, 19.999998 )     1.90047682
 
     39    -0.375E-13     0.0000012460        1.9004761621       1.23  <-- CONV
        O_D=      0.0116368 O_OD=      0.0020529 O_TOT=      1.9004762 <-- SPRD
 Delta: O_D= -0.1521352E-13 O_OD= -0.2220446E-13 O_TOT= -0.3752554E-13 <-- DLTA
 ------------------------------------------------------------------------------
 Cycle:     40
  WF centre and spread    1  (  0.000000, -0.000000,  9.999999 )     0.95023809
  WF centre and spread    2  (  1.223630,  0.706463,  9.999999 )     0.95023873
  Sum of centres and spreads (  1.223630,  0.706463, 19.999998 )     1.90047682
 
     40    -0.129E-11     0.0000012297        1.9004761621       1.23  <-- CONV
        O_D=      0.0116368 O_OD=      0.0020529 O_TOT=      1.9004762 <-- SPRD
 Delta: O_D= -0.8818293E-13 O_OD= -0.1201730E-11 O_TOT= -0.1289857E-11 <-- DLTA
 ------------------------------------------------------------------------------
 Cycle:     41
  WF centre and spread    1  (  0.000000, -0.000000,  9.999999 )     0.95023809
  WF centre and spread    2  (  1.223630,  0.706463,  9.999999 )     0.95023873
  Sum of centres and spreads (  1.223630,  0.706463, 19.999998 )     1.90047682
 
     41    -0.222E-13     0.0000011547        1.9004761621       1.23  <-- CONV
        O_D=      0.0116368 O_OD=      0.0020529 O_TOT=      1.9004762 <-- SPRD
 Delta: O_D=  0.9861903E-14 O_OD= -0.3226542E-13 O_TOT= -0.2220446E-13 <-- DLTA
 ------------------------------------------------------------------------------
 Cycle:     42
  WF centre and spread    1  (  0.000000, -0.000000,  9.999999 )     0.95023809
  WF centre and spread    2  (  1.223630,  0.706463,  9.999999 )     0.95023873
  Sum of centres and spreads (  1.223630,  0.706463, 19.999998 )     1.90047682
 
     42    -0.338E-13     0.0000011670        1.9004761621       1.23  <-- CONV
        O_D=      0.0116368 O_OD=      0.0020529 O_TOT=      1.9004762 <-- SPRD
 Delta: O_D=  0.6415007E-14 O_OD= -0.4007688E-13 O_TOT= -0.3375078E-13 <-- DLTA
 ------------------------------------------------------------------------------
 Cycle:     43
  WF centre and spread    1  (  0.000000, -0.000000,  9.999999 )     0.95023809
  WF centre and spread    2  (  1.223630,  0.706463,  9.999999 )     0.95023873
  Sum of centres and spreads (  1.223630,  0.706463, 19.999998 )     1.90047682
 
     43    -0.113E-13     0.0000011753        1.9004761621       1.23  <-- CONV
        O_D=      0.0116368 O_OD=      0.0020529 O_TOT=      1.9004762 <-- SPRD
 Delta: O_D= -0.4060988E-14 O_OD= -0.7142724E-14 O_TOT= -0.1132427E-13 <-- DLTA
 ------------------------------------------------------------------------------
 Cycle:     44
  WF centre and spread    1  (  0.000000, -0.000000,  9.999999 )     0.95023809
  WF centre and spread    2  (  1.223630,  0.706463,  9.999999 )     0.95023873
  Sum of centres and spreads (  1.223630,  0.706463, 19.999998 )     1.90047682
 
     44    -0.222E-13     0.0000011707        1.9004761621       1.24  <-- CONV
        O_D=      0.0116368 O_OD=      0.0020529 O_TOT=      1.9004762 <-- SPRD
 Delta: O_D= -0.7998810E-14 O_OD= -0.1423688E-13 O_TOT= -0.2220446E-13 <-- DLTA
 ------------------------------------------------------------------------------
 Cycle:     45
  WF centre and spread    1  (  0.000000, -0.000000,  9.999999 )     0.95023809
  WF centre and spread    2  (  1.223630,  0.706463,  9.999999 )     0.95023873
  Sum of centres and spreads (  1.223630,  0.706463, 19.999998 )     1.90047682
 
     45    -0.326E-13     0.0000011616        1.9004761621       1.24  <-- CONV
        O_D=      0.0116368 O_OD=      0.0020529 O_TOT=      1.9004762 <-- SPRD
 Delta: O_D= -0.1141275E-13 O_OD= -0.2115972E-13 O_TOT= -0.3264056E-13 <-- DLTA
 ------------------------------------------------------------------------------
 Cycle:     46
  WF centre and spread    1  (  0.000000, -0.000000,  9.999999 )     0.95023809
  WF centre and spread    2  (  1.223630,  0.706463,  9.999999 )     0.95023873
  Sum of centres and spreads (  1.223630,  0.706463, 19.999998 )     1.90047682
 
     46    -0.127E-11     0.0000011485        1.9004761621       1.24  <-- CONV
        O_D=      0.0116368 O_OD=      0.0020529 O_TOT=      1.9004762 <-- SPRD
 Delta: O_D= -0.2606942E-13 O_OD= -0.1239684E-11 O_TOT= -0.1265654E-11 <-- DLTA
 ------------------------------------------------------------------------------
 Cycle:     47
  WF centre and spread    1  (  0.000000, -0.000000,  9.999999 )     0.95023809
  WF centre and spread    2  (  1.223630,  0.706463,  9.999999 )     0.95023873
  Sum of centres and spreads (  1.223630,  0.706463, 19.999998 )     1.90047682
 
     47    -0.240E-13     0.0000011416        1.9004761621       1.24  <-- CONV
        O_D=      0.0116368 O_OD=      0.0020529 O_TOT=      1.9004762 <-- SPRD
 Delta: O_D=  0.9652001E-14 O_OD= -0.3358208E-13 O_TOT= -0.2398082E-13 <-- DLTA
 ------------------------------------------------------------------------------
 Cycle:     48
  WF centre and spread    1  (  0.000000, -0.000000,  9.999999 )     0.95023809
  WF centre and spread    2  (  1.223630,  0.706463,  9.999999 )     0.95023873
  Sum of centres and spreads (  1.223630,  0.706463, 19.999998 )     1.90047682
 
     48    -0.351E-13     0.0000011537        1.9004761621       1.24  <-- CONV
        O_D=      0.0116368 O_OD=      0.0020529 O_TOT=      1.9004762 <-- SPRD
 Delta: O_D=  0.5984796E-14 O_OD= -0.4104356E-13 O_TOT= -0.3508305E-13 <-- DLTA
 ------------------------------------------------------------------------------
 Cycle:     49
  WF centre and spread    1  (  0.000000, -0.000000,  9.999999 )     0.95023809
  WF centre and spread    2  (  1.223630,  0.706463,  9.999999 )     0.95023873
  Sum of centres and spreads (  1.223630,  0.706463, 19.999998 )     1.90047682
 
     49    -0.109E-13     0.0000011615        1.9004761621       1.25  <-- CONV
        O_D=      0.0116368 O_OD=      0.0020529 O_TOT=      1.9004762 <-- SPRD
 Delta: O_D= -0.4168541E-14 O_OD= -0.6766289E-14 O_TOT= -0.1088019E-13 <-- DLTA
 ------------------------------------------------------------------------------
 Cycle:     50
  WF centre and spread    1  (  0.000000, -0.000000,  9.999999 )     0.95023809
  WF centre and spread    2  (  1.223630,  0.706463,  9.999999 )     0.95023873
  Sum of centres and spreads (  1.223630,  0.706463, 19.999998 )     1.90047682
 
     50    -0.218E-13     0.0000011567        1.9004761621       1.25  <-- CONV
        O_D=      0.0116368 O_OD=      0.0020529 O_TOT=      1.9004762 <-- SPRD
 Delta: O_D= -0.8200038E-14 O_OD= -0.1348227E-13 O_TOT= -0.2176037E-13 <-- DLTA
 ------------------------------------------------------------------------------
 Cycle:     51
  WF centre and spread    1  (  0.000000, -0.000000,  9.999999 )     0.95023809
  WF centre and spread    2  (  1.223630,  0.706463,  9.999999 )     0.95023873
  Sum of centres and spreads (  1.223630,  0.706463, 19.999998 )     1.90047682
 
     51    -0.318E-13     0.0000011472        1.9004761621       1.25  <-- CONV
        O_D=      0.0116368 O_OD=      0.0020529 O_TOT=      1.9004762 <-- SPRD
 Delta: O_D= -0.1180132E-13 O_OD= -0.2001307E-13 O_TOT= -0.3175238E-13 <-- DLTA
 ------------------------------------------------------------------------------
 Cycle:     52
  WF centre and spread    1  (  0.000000, -0.000000,  9.999999 )     0.95023809
  WF centre and spread    2  (  1.223630,  0.706463,  9.999999 )     0.95023873
  Sum of centres and spreads (  1.223630,  0.706463, 19.999998 )     1.90047682
 
     52    -0.121E-11     0.0000011335        1.9004761621       1.25  <-- CONV
        O_D=      0.0116368 O_OD=      0.0020529 O_TOT=      1.9004762 <-- SPRD
 Delta: O_D= -0.3273423E-14 O_OD= -0.1205988E-11 O_TOT= -0.1209255E-11 <-- DLTA
 ------------------------------------------------------------------------------
 Cycle:     53
  WF centre and spread    1  (  0.000000, -0.000000,  9.999999 )     0.95023809
  WF centre and spread    2  (  1.223630,  0.706463,  9.999999 )     0.95023873
  Sum of centres and spreads (  1.223630,  0.706463, 19.999998 )     1.90047682
 
     53    -0.218E-13     0.0000011503        1.9004761621       1.25  <-- CONV
        O_D=      0.0116368 O_OD=      0.0020529 O_TOT=      1.9004762 <-- SPRD
 Delta: O_D=  0.1112131E-13 O_OD= -0.3281490E-13 O_TOT= -0.2176037E-13 <-- DLTA
 ------------------------------------------------------------------------------
 Cycle:     54
  WF centre and spread    1  (  0.000000, -0.000000,  9.999999 )     0.95023809
  WF centre and spread    2  (  1.223630,  0.706463,  9.999999 )     0.95023873
  Sum of centres and spreads (  1.223630,  0.706463, 19.999998 )     1.90047682
 
     54    -0.329E-13     0.0000011639        1.9004761621       1.26  <-- CONV
        O_D=      0.0116368 O_OD=      0.0020529 O_TOT=      1.9004762 <-- SPRD
 Delta: O_D=  0.7004813E-14 O_OD= -0.3997237E-13 O_TOT= -0.3286260E-13 <-- DLTA
 ------------------------------------------------------------------------------
 Cycle:     55
  WF centre and spread    1  (  0.000000, -0.000000,  9.999999 )     0.95023809
  WF centre and spread    2  (  1.223630,  0.706463,  9.999999 )     0.95023873
  Sum of centres and spreads (  1.223630,  0.706463, 19.999998 )     1.90047682
 
     55    -0.111E-13     0.0000011728        1.9004761621       1.26  <-- CONV
        O_D=      0.0116368 O_OD=      0.0020529 O_TOT=      1.9004762 <-- SPRD
 Delta: O_D= -0.4740999E-14 O_OD= -0.6400262E-14 O_TOT= -0.1110223E-13 <-- DLTA
 ------------------------------------------------------------------------------
 Cycle:     56
  WF centre and spread    1  (  0.000000, -0.000000,  9.999999 )     0.95023809
  WF centre and spread    2  (  1.223630,  0.706463,  9.999999 )     0.95023873
  Sum of centres and spreads (  1.223630,  0.706463, 19.999998 )     1.90047682
 
     56    -0.220E-13     0.0000011673        1.9004761621       1.26  <-- CONV
        O_D=      0.0116368 O_OD=      0.0020529 O_TOT=      1.9004762 <-- SPRD
 Delta: O_D= -0.9331078E-14 O_OD= -0.1274068E-13 O_TOT= -0.2198242E-13 <-- DLTA
 ------------------------------------------------------------------------------
 Cycle:     57
  WF centre and spread    1  (  0.000000, -0.000000,  9.999999 )     0.95023809
  WF centre and spread    2  (  1.223630,  0.706463,  9.999999 )     0.95023873
  Sum of centres and spreads (  1.223630,  0.706463, 19.999998 )     1.90047682
 
     57    -0.322E-13     0.0000011566        1.9004761621       1.26  <-- CONV
        O_D=      0.0116368 O_OD=      0.0020529 O_TOT=      1.9004762 <-- SPRD
 Delta: O_D= -0.1334176E-13 O_OD= -0.1889938E-13 O_TOT= -0.3219647E-13 <-- DLTA
 ------------------------------------------------------------------------------
 Cycle:     58
  WF centre and spread    1  (  0.000000, -0.000000,  9.999999 )     0.95023809
  WF centre and spread    2  (  1.223630,  0.706463,  9.999999 )     0.95023873
  Sum of centres and spreads (  1.223630,  0.706463, 19.999998 )     1.90047682
 
     58    -0.415E-13     0.0000011410        1.9004761621       1.26  <-- CONV
        O_D=      0.0116368 O_OD=      0.0020529 O_TOT=      1.9004762 <-- SPRD
 Delta: O_D= -0.1663253E-13 O_OD= -0.2477836E-13 O_TOT= -0.4152234E-13 <-- DLTA
 ------------------------------------------------------------------------------
 Cycle:     59
  WF centre and spread    1  (  0.000000, -0.000000,  9.999999 )     0.95023809
  WF centre and spread    2  (  1.223630,  0.706463,  9.999999 )     0.95023873
  Sum of centres and spreads (  1.223630,  0.706463, 19.999998 )     1.90047682
 
     59    -0.114E-11     0.0000011213        1.9004761621       1.26  <-- CONV
        O_D=      0.0116368 O_OD=      0.0020529 O_TOT=      1.9004762 <-- SPRD
 Delta: O_D=  0.1357924E-12 O_OD= -0.1279893E-11 O_TOT= -0.1144196E-11 <-- DLTA
 ------------------------------------------------------------------------------
 Cycle:     60
  WF centre and spread    1  (  0.000000, -0.000000,  9.999999 )     0.95023809
  WF centre and spread    2  (  1.223630,  0.706463,  9.999999 )     0.95023873
  Sum of centres and spreads (  1.223630,  0.706463, 19.999998 )     1.90047682
 
     60    -0.129E-12     0.0000012930        1.9004761621       1.27  <-- CONV
        O_D=      0.0116368 O_OD=      0.0020529 O_TOT=      1.9004762 <-- SPRD
 Delta: O_D=  0.3720982E-12 O_OD= -0.5009057E-12 O_TOT= -0.1287859E-12 <-- DLTA
 ------------------------------------------------------------------------------
 Cycle:     61
  WF centre and spread    1  (  0.000000, -0.000000,  9.999999 )     0.95023809
  WF centre and spread    2  (  1.223630,  0.706463,  9.999999 )     0.95023873
  Sum of centres and spreads (  1.223630,  0.706463, 19.999998 )     1.90047682
 
     61    -0.220E-13     0.0000016444        1.9004761621       1.27  <-- CONV
        O_D=      0.0116368 O_OD=      0.0020529 O_TOT=      1.9004762 <-- SPRD
 Delta: O_D= -0.1607395E-13 O_OD= -0.5895458E-14 O_TOT= -0.2198242E-13 <-- DLTA
 ------------------------------------------------------------------------------
 Cycle:     62
  WF centre and spread    1  (  0.000000, -0.000000,  9.999999 )     0.95023809
  WF centre and spread    2  (  1.223630,  0.706463,  9.999999 )     0.95023873
  Sum of centres and spreads (  1.223630,  0.706463, 19.999998 )     1.90047682
 
     62    -0.429E-13     0.0000016310        1.9004761621       1.27  <-- CONV
        O_D=      0.0116368 O_OD=      0.0020529 O_TOT=      1.9004762 <-- SPRD
 Delta: O_D= -0.3114176E-13 O_OD= -0.1167989E-13 O_TOT= -0.4285461E-13 <-- DLTA
 ------------------------------------------------------------------------------
 Cycle:     63
  WF centre and spread    1  (  0.000000, -0.000000,  9.999999 )     0.95023809
  WF centre and spread    2  (  1.223630,  0.706463,  9.999999 )     0.95023873
  Sum of centres and spreads (  1.223630,  0.706463, 19.999998 )     1.90047682
 
     63    -0.127E-11     0.0000016048        1.9004761621       1.27  <-- CONV
        O_D=      0.0116368 O_OD=      0.0020529 O_TOT=      1.9004762 <-- SPRD
 Delta: O_D= -0.4377852E-12 O_OD= -0.8300552E-12 O_TOT= -0.1267653E-11 <-- DLTA
 ------------------------------------------------------------------------------
 Cycle:     64
  WF centre and spread    1  (  0.000000, -0.000000,  9.999999 )     0.95023809
  WF centre and spread    2  (  1.223630,  0.706463,  9.999999 )     0.95023873
  Sum of centres and spreads (  1.223630,  0.706463, 19.999998 )     1.90047682
 
     64    -0.600E-14     0.0000011849        1.9004761621       1.28  <-- CONV
        O_D=      0.0116368 O_OD=      0.0020529 O_TOT=      1.9004762 <-- SPRD
 Delta: O_D=  0.8975459E-14 O_OD= -0.1482581E-13 O_TOT= -0.5995204E-14 <-- DLTA
 ------------------------------------------------------------------------------
 Cycle:     65
  WF centre and spread    1  (  0.000000, -0.000000,  9.999999 )     0.95023809
  WF centre and spread    2  (  1.223630,  0.706463,  9.999999 )     0.95023873
  Sum of centres and spreads (  1.223630,  0.706463, 19.999998 )     1.90047682
 
     65    -0.175E-13     0.0000011954        1.9004761621       1.28  <-- CONV
        O_D=      0.0116368 O_OD=      0.0020529 O_TOT=      1.9004762 <-- SPRD
 Delta: O_D=  0.3271688E-14 O_OD= -0.2074469E-13 O_TOT= -0.1754152E-13 <-- DLTA
 ------------------------------------------------------------------------------
 Cycle:     66
[...]
 
    170    -0.999E-14     0.0000007873        1.9004761621       1.46  <-- CONV
        O_D=      0.0116368 O_OD=      0.0020529 O_TOT=      1.9004762 <-- SPRD
 Delta: O_D= -0.1838807E-15 O_OD= -0.9910042E-14 O_TOT= -0.9992007E-14 <-- DLTA
 ------------------------------------------------------------------------------
 Cycle:    171
  WF centre and spread    1  (  0.000000, -0.000000,  9.999999 )     0.95023809
  WF centre and spread    2  (  1.223630,  0.706463,  9.999999 )     0.95023873
  Sum of centres and spreads (  1.223630,  0.706463, 19.999998 )     1.90047682
 
    171    -0.151E-13     0.0000007871        1.9004761621       1.46  <-- CONV
        O_D=      0.0116368 O_OD=      0.0020529 O_TOT=      1.9004762 <-- SPRD
 Delta: O_D= -0.3243933E-15 O_OD= -0.1484056E-13 O_TOT= -0.1509903E-13 <-- DLTA
 ------------------------------------------------------------------------------
 Cycle:    172
  WF centre and spread    1  (  0.000000, -0.000000,  9.999999 )     0.95023809
  WF centre and spread    2  (  1.223630,  0.706463,  9.999999 )     0.95023873
  Sum of centres and spreads (  1.223630,  0.706463, 19.999998 )     1.90047682
 
    172    -0.202E-13     0.0000007868        1.9004761621       1.46  <-- CONV
        O_D=      0.0116368 O_OD=      0.0020529 O_TOT=      1.9004762 <-- SPRD
 Delta: O_D= -0.3504141E-15 O_OD= -0.1977368E-13 O_TOT= -0.2020606E-13 <-- DLTA
 ------------------------------------------------------------------------------
 Cycle:    173
  WF centre and spread    1  (  0.000000, -0.000000,  9.999999 )     0.95023809
  WF centre and spread    2  (  1.223630,  0.706463,  9.999999 )     0.95023873
  Sum of centres and spreads (  1.223630,  0.706463, 19.999998 )     1.90047682
 
    173    -0.251E-13     0.0000007863        1.9004761621       1.46  <-- CONV
        O_D=      0.0116368 O_OD=      0.0020529 O_TOT=      1.9004762 <-- SPRD
 Delta: O_D= -0.5169476E-15 O_OD= -0.2466343E-13 O_TOT= -0.2509104E-13 <-- DLTA
 ------------------------------------------------------------------------------
 Cycle:    174
  WF centre and spread    1  (  0.000000, -0.000000,  9.999999 )     0.95023809
  WF centre and spread    2  (  1.223630,  0.706463,  9.999999 )     0.95023873
  Sum of centres and spreads (  1.223630,  0.706463, 19.999998 )     1.90047682
 
    174    -0.302E-13     0.0000007858        1.9004761621       1.46  <-- CONV
        O_D=      0.0116368 O_OD=      0.0020529 O_TOT=      1.9004762 <-- SPRD
 Delta: O_D= -0.5828671E-15 O_OD= -0.2954928E-13 O_TOT= -0.3019807E-13 <-- DLTA
 ------------------------------------------------------------------------------
 Cycle:    175
  WF centre and spread    1  (  0.000000, -0.000000,  9.999999 )     0.95023809
  WF centre and spread    2  (  1.223630,  0.706463,  9.999999 )     0.95023873
  Sum of centres and spreads (  1.223630,  0.706463, 19.999998 )     1.90047682
 
    175    -0.533E-14     0.0000007851        1.9004761621       1.47  <-- CONV
        O_D=      0.0116368 O_OD=      0.0020529 O_TOT=      1.9004762 <-- SPRD
 Delta: O_D= -0.1370432E-15 O_OD= -0.4927482E-14 O_TOT= -0.5329071E-14 <-- DLTA
 ------------------------------------------------------------------------------
 Cycle:    176
  WF centre and spread    1  (  0.000000, -0.000000,  9.999999 )     0.95023809
  WF centre and spread    2  (  1.223630,  0.706463,  9.999999 )     0.95023873
  Sum of centres and spreads (  1.223630,  0.706463, 19.999998 )     1.90047682
 
    176    -0.977E-14     0.0000007850        1.9004761621       1.47  <-- CONV
        O_D=      0.0116368 O_OD=      0.0020529 O_TOT=      1.9004762 <-- SPRD
 Delta: O_D= -0.1509209E-15 O_OD= -0.9840653E-14 O_TOT= -0.9769963E-14 <-- DLTA
 ------------------------------------------------------------------------------
 Cycle:    177
  WF centre and spread    1  (  0.000000, -0.000000,  9.999999 )     0.95023809
  WF centre and spread    2  (  1.223630,  0.706463,  9.999999 )     0.95023873
  Sum of centres and spreads (  1.223630,  0.706463, 19.999998 )     1.90047682
 
    177    -0.149E-13     0.0000007848        1.9004761621       1.47  <-- CONV
        O_D=      0.0116368 O_OD=      0.0020529 O_TOT=      1.9004762 <-- SPRD
 Delta: O_D= -0.2775558E-15 O_OD= -0.1475556E-13 O_TOT= -0.1487699E-13 <-- DLTA
 ------------------------------------------------------------------------------
 Cycle:    178
  WF centre and spread    1  (  0.000000, -0.000000,  9.999999 )     0.95023809
  WF centre and spread    2  (  1.223630,  0.706463,  9.999999 )     0.95023873
  Sum of centres and spreads (  1.223630,  0.706463, 19.999998 )     1.90047682
 
    178    -0.202E-13     0.0000007844        1.9004761621       1.47  <-- CONV
        O_D=      0.0116368 O_OD=      0.0020529 O_TOT=      1.9004762 <-- SPRD
 Delta: O_D= -0.4007211E-15 O_OD= -0.1965485E-13 O_TOT= -0.2020606E-13 <-- DLTA
 ------------------------------------------------------------------------------
 Cycle:    179
  WF centre and spread    1  (  0.000000, -0.000000,  9.999999 )     0.95023809
  WF centre and spread    2  (  1.223630,  0.706463,  9.999999 )     0.95023873
  Sum of centres and spreads (  1.223630,  0.706463, 19.999998 )     1.90047682
 
    179    -0.251E-13     0.0000007840        1.9004761621       1.47  <-- CONV
        O_D=      0.0116368 O_OD=      0.0020529 O_TOT=      1.9004762 <-- SPRD
 Delta: O_D= -0.5273559E-15 O_OD= -0.2452682E-13 O_TOT= -0.2509104E-13 <-- DLTA
 ------------------------------------------------------------------------------
 Cycle:    180
  WF centre and spread    1  (  0.000000, -0.000000,  9.999999 )     0.95023809
  WF centre and spread    2  (  1.223630,  0.706463,  9.999999 )     0.95023873
  Sum of centres and spreads (  1.223630,  0.706463, 19.999998 )     1.90047682
 
    180    -0.300E-13     0.0000007834        1.9004761621       1.47  <-- CONV
        O_D=      0.0116368 O_OD=      0.0020529 O_TOT=      1.9004762 <-- SPRD
 Delta: O_D= -0.5637851E-15 O_OD= -0.2937537E-13 O_TOT= -0.2997602E-13 <-- DLTA
 ------------------------------------------------------------------------------
 Cycle:    181
  WF centre and spread    1  (  0.000000, -0.000000,  9.999999 )     0.95023809
  WF centre and spread    2  (  1.223630,  0.706463,  9.999999 )     0.95023873
  Sum of centres and spreads (  1.223630,  0.706463, 19.999998 )     1.90047682
 
    181    -0.511E-14     0.0000007828        1.9004761621       1.48  <-- CONV
        O_D=      0.0116368 O_OD=      0.0020529 O_TOT=      1.9004762 <-- SPRD
 Delta: O_D= -0.1422473E-15 O_OD= -0.4897558E-14 O_TOT= -0.5107026E-14 <-- DLTA
 ------------------------------------------------------------------------------
 Cycle:    182
  WF centre and spread    1  (  0.000000, -0.000000,  9.999999 )     0.95023809
  WF centre and spread    2  (  1.223630,  0.706463,  9.999999 )     0.95023873
  Sum of centres and spreads (  1.223630,  0.706463, 19.999998 )     1.90047682
 
    182    -0.999E-14     0.0000007827        1.9004761621       1.48  <-- CONV
        O_D=      0.0116368 O_OD=      0.0020529 O_TOT=      1.9004762 <-- SPRD
 Delta: O_D= -0.1630640E-15 O_OD= -0.9787310E-14 O_TOT= -0.9992007E-14 <-- DLTA
 ------------------------------------------------------------------------------
 Cycle:    183
  WF centre and spread    1  (  0.000000, -0.000000,  9.999999 )     0.95023809
  WF centre and spread    2  (  1.223630,  0.706463,  9.999999 )     0.95023873
  Sum of centres and spreads (  1.223630,  0.706463, 19.999998 )     1.90047682
 
    183    -0.149E-13     0.0000007824        1.9004761621       1.48  <-- CONV
        O_D=      0.0116368 O_OD=      0.0020529 O_TOT=      1.9004762 <-- SPRD
 Delta: O_D= -0.3035766E-15 O_OD= -0.1466579E-13 O_TOT= -0.1487699E-13 <-- DLTA
 ------------------------------------------------------------------------------
 Cycle:    184
  WF centre and spread    1  (  0.000000, -0.000000,  9.999999 )     0.95023809
  WF centre and spread    2  (  1.223630,  0.706463,  9.999999 )     0.95023873
  Sum of centres and spreads (  1.223630,  0.706463, 19.999998 )     1.90047682
 
    184    -0.200E-13     0.0000007821        1.9004761621       1.48  <-- CONV
        O_D=      0.0116368 O_OD=      0.0020529 O_TOT=      1.9004762 <-- SPRD
 Delta: O_D= -0.3729655E-15 O_OD= -0.1955207E-13 O_TOT= -0.1998401E-13 <-- DLTA
 ------------------------------------------------------------------------------
 Cycle:    185
  WF centre and spread    1  (  0.000000, -0.000000,  9.999999 )     0.95023809
  WF centre and spread    2  (  1.223630,  0.706463,  9.999999 )     0.95023873
  Sum of centres and spreads (  1.223630,  0.706463, 19.999998 )     1.90047682
 
    185    -0.249E-13     0.0000007817        1.9004761621       1.48  <-- CONV
        O_D=      0.0116368 O_OD=      0.0020529 O_TOT=      1.9004762 <-- SPRD
 Delta: O_D= -0.4649059E-15 O_OD= -0.2437373E-13 O_TOT= -0.2486900E-13 <-- DLTA
 ------------------------------------------------------------------------------
 Cycle:    186
  WF centre and spread    1  (  0.000000, -0.000000,  9.999999 )     0.95023809
  WF centre and spread    2  (  1.223630,  0.706463,  9.999999 )     0.95023873
  Sum of centres and spreads (  1.223630,  0.706463, 19.999998 )     1.90047682
 
    186    -0.295E-13     0.0000007811        1.9004761621       1.48  <-- CONV
        O_D=      0.0116368 O_OD=      0.0020529 O_TOT=      1.9004762 <-- SPRD
 Delta: O_D= -0.5516421E-15 O_OD= -0.2920711E-13 O_TOT= -0.2953193E-13 <-- DLTA
 ------------------------------------------------------------------------------
 Cycle:    187
  WF centre and spread    1  (  0.000000, -0.000000,  9.999999 )     0.95023809
  WF centre and spread    2  (  1.223630,  0.706463,  9.999999 )     0.95023873
  Sum of centres and spreads (  1.223630,  0.706463, 19.999998 )     1.90047682
 
    187    -0.511E-14     0.0000007805        1.9004761621       1.49  <-- CONV
        O_D=      0.0116368 O_OD=      0.0020529 O_TOT=      1.9004762 <-- SPRD
 Delta: O_D= -0.1162265E-15 O_OD= -0.4869369E-14 O_TOT= -0.5107026E-14 <-- DLTA
 ------------------------------------------------------------------------------
 Cycle:    188
  WF centre and spread    1  (  0.000000, -0.000000,  9.999999 )     0.95023809
  WF centre and spread    2  (  1.223630,  0.706463,  9.999999 )     0.95023873
  Sum of centres and spreads (  1.223630,  0.706463, 19.999998 )     1.90047682
 
    188    -0.999E-14     0.0000007803        1.9004761621       1.49  <-- CONV
        O_D=      0.0116368 O_OD=      0.0020529 O_TOT=      1.9004762 <-- SPRD
 Delta: O_D= -0.2255141E-15 O_OD= -0.9721390E-14 O_TOT= -0.9992007E-14 <-- DLTA
 ------------------------------------------------------------------------------
 Cycle:    189
  WF centre and spread    1  (  0.000000, -0.000000,  9.999999 )     0.95023809
  WF centre and spread    2  (  1.223630,  0.706463,  9.999999 )     0.95023873
  Sum of centres and spreads (  1.223630,  0.706463, 19.999998 )     1.90047682
 
    189    -0.149E-13     0.0000007801        1.9004761621       1.49  <-- CONV
        O_D=      0.0116368 O_OD=      0.0020529 O_TOT=      1.9004762 <-- SPRD
 Delta: O_D= -0.2636780E-15 O_OD= -0.1458816E-13 O_TOT= -0.1487699E-13 <-- DLTA
 ------------------------------------------------------------------------------
 Cycle:    190
  WF centre and spread    1  (  0.000000, -0.000000,  9.999999 )     0.95023809
  WF centre and spread    2  (  1.223630,  0.706463,  9.999999 )     0.95023873
  Sum of centres and spreads (  1.223630,  0.706463, 19.999998 )     1.90047682
 
    190    -0.198E-13     0.0000007798        1.9004761621       1.49  <-- CONV
        O_D=      0.0116368 O_OD=      0.0020529 O_TOT=      1.9004762 <-- SPRD
 Delta: O_D= -0.3972517E-15 O_OD= -0.1941546E-13 O_TOT= -0.1976197E-13 <-- DLTA
 ------------------------------------------------------------------------------
 Cycle:    191
  WF centre and spread    1  (  0.000000, -0.000000,  9.999999 )     0.95023809
  WF centre and spread    2  (  1.223630,  0.706463,  9.999999 )     0.95023873
  Sum of centres and spreads (  1.223630,  0.706463, 19.999998 )     1.90047682
 
    191    -0.246E-13     0.0000007794        1.9004761621       1.49  <-- CONV
        O_D=      0.0116368 O_OD=      0.0020529 O_TOT=      1.9004762 <-- SPRD
 Delta: O_D= -0.4597017E-15 O_OD= -0.2424493E-13 O_TOT= -0.2464695E-13 <-- DLTA
 ------------------------------------------------------------------------------
 Cycle:    192
  WF centre and spread    1  (  0.000000, -0.000000,  9.999999 )     0.95023809
  WF centre and spread    2  (  1.223630,  0.706463,  9.999999 )     0.95023873
  Sum of centres and spreads (  1.223630,  0.706463, 19.999998 )     1.90047682
 
    192    -0.298E-13     0.0000007788        1.9004761621       1.49  <-- CONV
        O_D=      0.0116368 O_OD=      0.0020529 O_TOT=      1.9004762 <-- SPRD
 Delta: O_D= -0.6002143E-15 O_OD= -0.2903277E-13 O_TOT= -0.2975398E-13 <-- DLTA
 ------------------------------------------------------------------------------
 Cycle:    193
  WF centre and spread    1  (  0.000000, -0.000000,  9.999999 )     0.95023809
  WF centre and spread    2  (  1.223630,  0.706463,  9.999999 )     0.95023873
  Sum of centres and spreads (  1.223630,  0.706463, 19.999998 )     1.90047682
 
    193    -0.488E-14     0.0000007781        1.9004761621       1.50  <-- CONV
        O_D=      0.0116368 O_OD=      0.0020529 O_TOT=      1.9004762 <-- SPRD
 Delta: O_D= -0.8847090E-16 O_OD= -0.4829904E-14 O_TOT= -0.4884981E-14 <-- DLTA
 ------------------------------------------------------------------------------
 Cycle:    194
  WF centre and spread    1  (  0.000000, -0.000000,  9.999999 )     0.95023809
  WF centre and spread    2  (  1.223630,  0.706463,  9.999999 )     0.95023873
  Sum of centres and spreads (  1.223630,  0.706463, 19.999998 )     1.90047682
 
    194    -0.977E-14     0.0000007780        1.9004761621       1.50  <-- CONV
        O_D=      0.0116368 O_OD=      0.0020529 O_TOT=      1.9004762 <-- SPRD
 Delta: O_D= -0.1890849E-15 O_OD= -0.9680191E-14 O_TOT= -0.9769963E-14 <-- DLTA
 ------------------------------------------------------------------------------
 Cycle:    195
  WF centre and spread    1  (  0.000000, -0.000000,  9.999999 )     0.95023809
  WF centre and spread    2  (  1.223630,  0.706463,  9.999999 )     0.95023873
  Sum of centres and spreads (  1.223630,  0.706463, 19.999998 )     1.90047682
 
    195    -0.149E-13     0.0000007778        1.9004761621       1.50  <-- CONV
        O_D=      0.0116368 O_OD=      0.0020529 O_TOT=      1.9004762 <-- SPRD
 Delta: O_D= -0.3018419E-15 O_OD= -0.1450185E-13 O_TOT= -0.1487699E-13 <-- DLTA
 ------------------------------------------------------------------------------
 Cycle:    196
  WF centre and spread    1  (  0.000000, -0.000000,  9.999999 )     0.95023809
  WF centre and spread    2  (  1.223630,  0.706463,  9.999999 )     0.95023873
  Sum of centres and spreads (  1.223630,  0.706463, 19.999998 )     1.90047682
 
    196    -0.198E-13     0.0000007775        1.9004761621       1.50  <-- CONV
        O_D=      0.0116368 O_OD=      0.0020529 O_TOT=      1.9004762 <-- SPRD
 Delta: O_D= -0.3365364E-15 O_OD= -0.1930660E-13 O_TOT= -0.1976197E-13 <-- DLTA
 ------------------------------------------------------------------------------
 Cycle:    197
  WF centre and spread    1  (  0.000000, -0.000000,  9.999999 )     0.95023809
  WF centre and spread    2  (  1.223630,  0.706463,  9.999999 )     0.95023873
  Sum of centres and spreads (  1.223630,  0.706463, 19.999998 )     1.90047682
 
    197    -0.244E-13     0.0000007770        1.9004761621       1.50  <-- CONV
        O_D=      0.0116368 O_OD=      0.0020529 O_TOT=      1.9004762 <-- SPRD
 Delta: O_D= -0.4666406E-15 O_OD= -0.2409574E-13 O_TOT= -0.2442491E-13 <-- DLTA
 ------------------------------------------------------------------------------
 Cycle:    198
  WF centre and spread    1  (  0.000000, -0.000000,  9.999999 )     0.95023809
  WF centre and spread    2  (  1.223630,  0.706463,  9.999999 )     0.95023873
  Sum of centres and spreads (  1.223630,  0.706463, 19.999998 )     1.90047682
 
    198    -0.295E-13     0.0000007765        1.9004761621       1.50  <-- CONV
        O_D=      0.0116368 O_OD=      0.0020529 O_TOT=      1.9004762 <-- SPRD
 Delta: O_D= -0.6383782E-15 O_OD= -0.2887014E-13 O_TOT= -0.2953193E-13 <-- DLTA
 ------------------------------------------------------------------------------
 Cycle:    199
  WF centre and spread    1  (  0.000000, -0.000000,  9.999999 )     0.95023809
  WF centre and spread    2  (  1.223630,  0.706463,  9.999999 )     0.95023873
  Sum of centres and spreads (  1.223630,  0.706463, 19.999998 )     1.90047682
 
    199    -0.488E-14     0.0000007758        1.9004761621       1.51  <-- CONV
        O_D=      0.0116368 O_OD=      0.0020529 O_TOT=      1.9004762 <-- SPRD
 Delta: O_D=  0.2081668E-16 O_OD= -0.4809955E-14 O_TOT= -0.4884981E-14 <-- DLTA
 ------------------------------------------------------------------------------
 Cycle:    200
  WF centre and spread    1  (  0.000000, -0.000000,  9.999999 )     0.95023809
  WF centre and spread    2  (  1.223630,  0.706463,  9.999999 )     0.95023873
  Sum of centres and spreads (  1.223630,  0.706463, 19.999998 )     1.90047682
 
    200    -0.977E-14     0.0000007757        1.9004761621       1.51  <-- CONV
        O_D=      0.0116368 O_OD=      0.0020529 O_TOT=      1.9004762 <-- SPRD
 Delta: O_D= -0.2706169E-15 O_OD= -0.9620776E-14 O_TOT= -0.9769963E-14 <-- DLTA
 ------------------------------------------------------------------------------

 Writing checkpoint file graphene.chk... done

 Final State
  WF centre and spread    1  (  0.000000, -0.000000,  9.999999 )     0.95023809
  WF centre and spread    2  (  1.223630,  0.706463,  9.999999 )     0.95023873
  Sum of centres and spreads (  1.223630,  0.706463, 19.999998 )     1.90047682
 
         Spreads (Ang^2)       Omega I      =     1.886786466
        ================       Omega D      =     0.011636813
                               Omega OD     =     0.002052883
    Final Spread (Ang^2)       Omega Total  =     1.900476162
 ------------------------------------------------------------------------------

 Wannier centres written to file graphene_centres.xyz
 
 On-site Hamiltonian matrix elements
     n        <0n|H|0n> (eV)
   -------------------------
     1        -4.133941
     2        -4.133941
 
 Time for wannierise            0.393 (sec)

 Writing checkpoint file graphene.chk... done

 *---------------------------------------------------------------------------*
 |                               PLOTTING                                    |
 *---------------------------------------------------------------------------*
 
 
 Calculating interpolated band-structure
 
 Time to calculate interpolated band structure       0.021 (sec)
 
 Time for plotting              0.168 (sec)
 Total Execution Time           2.089 (sec)

 *===========================================================================*
 |                             TIMING INFORMATION                            |
 *===========================================================================*
 |    Tag                                                Ncalls      Time (s)|
 |---------------------------------------------------------------------------|
 |kmesh: get                                        :         1         0.095|
 |overlap: allocate                                 :         1         0.000|
 |overlap: read                                     :         1         0.241|
 |dis: main                                         :         1         1.146|
 |wann: main                                        :         1         0.393|
 |plot: main                                        :         1         0.168|
 *---------------------------------------------------------------------------*
 
 All done: wannier90 exiting
