
     Program PWSCF v.6.8 starts on  8Nov2021 at 22:51: 8 

     This program is part of the open-source Quantum ESPRESSO suite
     for quantum simulation of materials; please cite
         "P. Giannozzi et al., J. Phys.:Condens. Matter 21 395502 (2009);
         "P. Giannozzi et al., J. Phys.:Condens. Matter 29 465901 (2017);
         "P. Giannozzi et al., J. Chem. Phys. 152 154105 (2020);
          URL http://www.quantum-espresso.org", 
     in publications or presentations arising from this work. More details at
     http://www.quantum-espresso.org/quote

     Parallel version (MPI), running on    24 processors

     MPI processes distributed on     1 nodes
     R & G space division:  proc/nbgrp/npool/nimage =      24
     52764 MiB available memory on the printing compute node when the environment starts
 
     Reading input from bands.pwi
Warning: card &IONS ignored
Warning: card / ignored
Warning: card &CELL ignored
Warning: card / ignored

     Current dimensions of program PWSCF are:
     Max number of different atomic species (ntypx) = 10
     Max number of k-points (npk) =  40000
     Max angular momentum in pseudopotentials (lmaxx) =  4

     Atomic positions and unit cell read from directory:
     ./tmp/graphite.save/
     Atomic positions from file used, from input discarded
 
     file C.pz-n-kjpaw_psl.1.0.0.UPF: wavefunction(s)  2S 2P renormalized

     Subspace diagonalization in iterative solution of the eigenvalue problem:
     one sub-group per band group will be used
     scalapack distributed-memory algorithm (size of sub-group:  4*  4 procs)

 
     Parallelization info
     --------------------
     sticks:   dense  smooth     PW     G-vecs:    dense   smooth      PW
     Min          29      15      4                 1717      607     102
     Max          30      16      5                 1726      617     113
     Sum         703     361    109                41301    14665    2603
 
     Using Slab Decomposition
 


     bravais-lattice index     =            4
     lattice parameter (alat)  =       4.6252  a.u.
     unit-cell volume          =     232.8418 (a.u.)^3
     number of atoms/cell      =            4
     number of atomic types    =            1
     number of electrons       =        16.00
     number of Kohn-Sham states=           16
     kinetic-energy cutoff     =      60.0000  Ry
     charge density cutoff     =     480.0000  Ry
     Exchange-correlation= SLA  PZ   NOGX NOGC
                           (   1   1   0   0   0   0   0)

     celldm(1)=   4.625184  celldm(2)=   0.000000  celldm(3)=   2.717335
     celldm(4)=   0.000000  celldm(5)=   0.000000  celldm(6)=   0.000000

     crystal axes: (cart. coord. in units of alat)
               a(1) = (   1.000000   0.000000   0.000000 )  
               a(2) = (  -0.500000   0.866025   0.000000 )  
               a(3) = (   0.000000   0.000000   2.717335 )  

     reciprocal axes: (cart. coord. in units 2 pi/alat)
               b(1) = (  1.000000  0.577350  0.000000 )  
               b(2) = (  0.000000  1.154701  0.000000 )  
               b(3) = (  0.000000  0.000000  0.368008 )  


     PseudoPot. # 1 for C  read from file:
     /opt/LDA/C.pz-n-kjpaw_psl.1.0.0.UPF
     MD5 check sum: 15019a788ed847dd19cec0d3328e849a
     Pseudo is Projector augmented-wave + core cor, Zval =  4.0
     Generated using 'atomic' code by A. Dal Corso  v.6.8
     Shape of augmentation charge: PSQ
     Using radial grid of 1073 points,  4 beta functions with: 
                l(1) =   0
                l(2) =   0
                l(3) =   1
                l(4) =   1
     Q(r) pseudized with 0 coefficients 


     atomic species   valence    mass     pseudopotential
        C              4.00    12.01100     C ( 1.00)

     24 Sym. Ops., with inversion, found (12 have fractional translation)


                                    s                        frac. trans.

      isym =  1     identity                                     

 cryst.   s( 1) = (     1          0          0      )
                  (     0          1          0      )
                  (     0          0          1      )

 cart.    s( 1) = (  1.0000000  0.0000000  0.0000000 )
                  (  0.0000000  1.0000000  0.0000000 )
                  (  0.0000000  0.0000000  1.0000000 )


      isym =  2     180 deg rotation - cart. axis [0,0,1]        

 cryst.   s( 2) = (    -1          0          0      )    f =(  0.3333333 )
                  (     0         -1          0      )       ( -0.3333333 )
                  (     0          0          1      )       (  0.5000000 )

 cart.    s( 2) = ( -1.0000000 -0.0000000  0.0000000 )    f =(  0.5000000 )
                  (  0.0000000 -1.0000000  0.0000000 )       ( -0.2886751 )
                  (  0.0000000  0.0000000  1.0000000 )       (  1.3586676 )


      isym =  3     180 deg rotation - cart. axis [0,1,0]        

 cryst.   s( 3) = (    -1          0          0      )
                  (     1          1          0      )
                  (     0          0         -1      )

 cart.    s( 3) = ( -1.0000000 -0.0000000  0.0000000 )
                  (  0.0000000  1.0000000  0.0000000 )
                  (  0.0000000  0.0000000 -1.0000000 )


      isym =  4     180 deg rotation - cart. axis [1,0,0]        

 cryst.   s( 4) = (     1          0          0      )    f =(  0.3333333 )
                  (    -1         -1          0      )       ( -0.3333333 )
                  (     0          0         -1      )       ( -0.5000000 )

 cart.    s( 4) = (  1.0000000  0.0000000  0.0000000 )    f =(  0.5000000 )
                  (  0.0000000 -1.0000000  0.0000000 )       ( -0.2886751 )
                  (  0.0000000  0.0000000 -1.0000000 )       ( -1.3586676 )


      isym =  5      60 deg rotation - cryst. axis [0,0,1]       

 cryst.   s( 5) = (     1          1          0      )    f =(  0.3333333 )
                  (    -1          0          0      )       ( -0.3333333 )
                  (     0          0          1      )       (  0.5000000 )

 cart.    s( 5) = (  0.5000000 -0.8660254  0.0000000 )    f =(  0.5000000 )
                  (  0.8660254  0.5000000  0.0000000 )       ( -0.2886751 )
                  (  0.0000000  0.0000000  1.0000000 )       (  1.3586676 )


      isym =  6      60 deg rotation - cryst. axis [0,0,-1]      

 cryst.   s( 6) = (     0         -1          0      )    f =(  0.3333333 )
                  (     1          1          0      )       ( -0.3333333 )
                  (     0          0          1      )       (  0.5000000 )

 cart.    s( 6) = (  0.5000000  0.8660254  0.0000000 )    f =(  0.5000000 )
                  ( -0.8660254  0.5000000  0.0000000 )       ( -0.2886751 )
                  (  0.0000000  0.0000000  1.0000000 )       (  1.3586676 )


      isym =  7     120 deg rotation - cryst. axis [0,0,1]       

 cryst.   s( 7) = (     0          1          0      )
                  (    -1         -1          0      )
                  (     0          0          1      )

 cart.    s( 7) = ( -0.5000000 -0.8660254  0.0000000 )
                  (  0.8660254 -0.5000000  0.0000000 )
                  (  0.0000000  0.0000000  1.0000000 )


      isym =  8     120 deg rotation - cryst. axis [0,0,-1]      

 cryst.   s( 8) = (    -1         -1          0      )
                  (     1          0          0      )
                  (     0          0          1      )

 cart.    s( 8) = ( -0.5000000  0.8660254  0.0000000 )
                  ( -0.8660254 -0.5000000  0.0000000 )
                  (  0.0000000  0.0000000  1.0000000 )


      isym =  9     180 deg rotation - cryst. axis [1,-1,0]      

 cryst.   s( 9) = (     0         -1          0      )
                  (    -1          0          0      )
                  (     0          0         -1      )

 cart.    s( 9) = (  0.5000000 -0.8660254  0.0000000 )
                  ( -0.8660254 -0.5000000  0.0000000 )
                  (  0.0000000  0.0000000 -1.0000000 )


      isym = 10     180 deg rotation - cryst. axis [2,1,0]       

 cryst.   s(10) = (     1          1          0      )
                  (     0         -1          0      )
                  (     0          0         -1      )

 cart.    s(10) = (  0.5000000  0.8660254  0.0000000 )
                  (  0.8660254 -0.5000000  0.0000000 )
                  (  0.0000000  0.0000000 -1.0000000 )


      isym = 11     180 deg rotation - cryst. axis [0,1,0]       

 cryst.   s(11) = (    -1         -1          0      )    f =(  0.3333333 )
                  (     0          1          0      )       ( -0.3333333 )
                  (     0          0         -1      )       ( -0.5000000 )

 cart.    s(11) = ( -0.5000000 -0.8660254  0.0000000 )    f =(  0.5000000 )
                  ( -0.8660254  0.5000000  0.0000000 )       ( -0.2886751 )
                  (  0.0000000  0.0000000 -1.0000000 )       ( -1.3586676 )


      isym = 12     180 deg rotation - cryst. axis [1,1,0]       

 cryst.   s(12) = (     0          1          0      )    f =(  0.3333333 )
                  (     1          0          0      )       ( -0.3333333 )
                  (     0          0         -1      )       ( -0.5000000 )

 cart.    s(12) = ( -0.5000000  0.8660254  0.0000000 )    f =(  0.5000000 )
                  (  0.8660254  0.5000000  0.0000000 )       ( -0.2886751 )
                  (  0.0000000  0.0000000 -1.0000000 )       ( -1.3586676 )


      isym = 13     inversion                                    

 cryst.   s(13) = (    -1          0          0      )    f =(  0.3333333 )
                  (     0         -1          0      )       ( -0.3333333 )
                  (     0          0         -1      )       ( -0.5000000 )

 cart.    s(13) = ( -1.0000000 -0.0000000  0.0000000 )    f =(  0.5000000 )
                  (  0.0000000 -1.0000000  0.0000000 )       ( -0.2886751 )
                  (  0.0000000  0.0000000 -1.0000000 )       ( -1.3586676 )


      isym = 14     inv. 180 deg rotation - cart. axis [0,0,1]   

 cryst.   s(14) = (     1          0          0      )
                  (     0          1          0      )
                  (     0          0         -1      )

 cart.    s(14) = (  1.0000000  0.0000000  0.0000000 )
                  (  0.0000000  1.0000000  0.0000000 )
                  (  0.0000000  0.0000000 -1.0000000 )


      isym = 15     inv. 180 deg rotation - cart. axis [0,1,0]   

 cryst.   s(15) = (     1          0          0      )    f =(  0.3333333 )
                  (    -1         -1          0      )       ( -0.3333333 )
                  (     0          0          1      )       (  0.5000000 )

 cart.    s(15) = (  1.0000000  0.0000000  0.0000000 )    f =(  0.5000000 )
                  (  0.0000000 -1.0000000  0.0000000 )       ( -0.2886751 )
                  (  0.0000000  0.0000000  1.0000000 )       (  1.3586676 )


      isym = 16     inv. 180 deg rotation - cart. axis [1,0,0]   

 cryst.   s(16) = (    -1          0          0      )
                  (     1          1          0      )
                  (     0          0          1      )

 cart.    s(16) = ( -1.0000000 -0.0000000  0.0000000 )
                  (  0.0000000  1.0000000  0.0000000 )
                  (  0.0000000  0.0000000  1.0000000 )


      isym = 17     inv.  60 deg rotation - cryst. axis [0,0,1]  

 cryst.   s(17) = (    -1         -1          0      )
                  (     1          0          0      )
                  (     0          0         -1      )

 cart.    s(17) = ( -0.5000000  0.8660254  0.0000000 )
                  ( -0.8660254 -0.5000000  0.0000000 )
                  (  0.0000000  0.0000000 -1.0000000 )


      isym = 18     inv.  60 deg rotation - cryst. axis [0,0,-1] 

 cryst.   s(18) = (     0          1          0      )
                  (    -1         -1          0      )
                  (     0          0         -1      )

 cart.    s(18) = ( -0.5000000 -0.8660254  0.0000000 )
                  (  0.8660254 -0.5000000  0.0000000 )
                  (  0.0000000  0.0000000 -1.0000000 )


      isym = 19     inv. 120 deg rotation - cryst. axis [0,0,1]  

 cryst.   s(19) = (     0         -1          0      )    f =(  0.3333333 )
                  (     1          1          0      )       ( -0.3333333 )
                  (     0          0         -1      )       ( -0.5000000 )

 cart.    s(19) = (  0.5000000  0.8660254  0.0000000 )    f =(  0.5000000 )
                  ( -0.8660254  0.5000000  0.0000000 )       ( -0.2886751 )
                  (  0.0000000  0.0000000 -1.0000000 )       ( -1.3586676 )


      isym = 20     inv. 120 deg rotation - cryst. axis [0,0,-1] 

 cryst.   s(20) = (     1          1          0      )    f =(  0.3333333 )
                  (    -1          0          0      )       ( -0.3333333 )
                  (     0          0         -1      )       ( -0.5000000 )

 cart.    s(20) = (  0.5000000 -0.8660254  0.0000000 )    f =(  0.5000000 )
                  (  0.8660254  0.5000000  0.0000000 )       ( -0.2886751 )
                  (  0.0000000  0.0000000 -1.0000000 )       ( -1.3586676 )


      isym = 21     inv. 180 deg rotation - cryst. axis [1,-1,0] 

 cryst.   s(21) = (     0          1          0      )    f =(  0.3333333 )
                  (     1          0          0      )       ( -0.3333333 )
                  (     0          0          1      )       (  0.5000000 )

 cart.    s(21) = ( -0.5000000  0.8660254  0.0000000 )    f =(  0.5000000 )
                  (  0.8660254  0.5000000  0.0000000 )       ( -0.2886751 )
                  (  0.0000000  0.0000000  1.0000000 )       (  1.3586676 )


      isym = 22     inv. 180 deg rotation - cryst. axis [2,1,0]  

 cryst.   s(22) = (    -1         -1          0      )    f =(  0.3333333 )
                  (     0          1          0      )       ( -0.3333333 )
                  (     0          0          1      )       (  0.5000000 )

 cart.    s(22) = ( -0.5000000 -0.8660254  0.0000000 )    f =(  0.5000000 )
                  ( -0.8660254  0.5000000  0.0000000 )       ( -0.2886751 )
                  (  0.0000000  0.0000000  1.0000000 )       (  1.3586676 )


      isym = 23     inv. 180 deg rotation - cryst. axis [0,1,0]  

 cryst.   s(23) = (     1          1          0      )
                  (     0         -1          0      )
                  (     0          0          1      )

 cart.    s(23) = (  0.5000000  0.8660254  0.0000000 )
                  (  0.8660254 -0.5000000  0.0000000 )
                  (  0.0000000  0.0000000  1.0000000 )


      isym = 24     inv. 180 deg rotation - cryst. axis [1,1,0]  

 cryst.   s(24) = (     0         -1          0      )
                  (    -1          0          0      )
                  (     0          0          1      )

 cart.    s(24) = (  0.5000000 -0.8660254  0.0000000 )
                  ( -0.8660254 -0.5000000  0.0000000 )
                  (  0.0000000  0.0000000  1.0000000 )


     point group D_6h(6/mmm)
     there are 12 classes
     the character table:

       E     2C6   2C3   C2    3C2'  3C2'' i     2S3   2S6   s_h   3s_d  3s_v 
A_1g   1.00  1.00  1.00  1.00  1.00  1.00  1.00  1.00  1.00  1.00  1.00  1.00
A_2g   1.00  1.00  1.00  1.00 -1.00 -1.00  1.00  1.00  1.00  1.00 -1.00 -1.00
B_1g   1.00 -1.00  1.00 -1.00  1.00 -1.00  1.00 -1.00  1.00 -1.00  1.00 -1.00
B_2g   1.00 -1.00  1.00 -1.00 -1.00  1.00  1.00 -1.00  1.00 -1.00 -1.00  1.00
E_1g   2.00  1.00 -1.00 -2.00  0.00  0.00  2.00  1.00 -1.00 -2.00  0.00  0.00
E_2g   2.00 -1.00 -1.00  2.00  0.00  0.00  2.00 -1.00 -1.00  2.00  0.00  0.00
A_1u   1.00  1.00  1.00  1.00  1.00  1.00 -1.00 -1.00 -1.00 -1.00 -1.00 -1.00
A_2u   1.00  1.00  1.00  1.00 -1.00 -1.00 -1.00 -1.00 -1.00 -1.00  1.00  1.00
B_1u   1.00 -1.00  1.00 -1.00  1.00 -1.00 -1.00  1.00 -1.00  1.00 -1.00  1.00
B_2u   1.00 -1.00  1.00 -1.00 -1.00  1.00 -1.00  1.00 -1.00  1.00  1.00 -1.00
E_1u   2.00  1.00 -1.00 -2.00  0.00  0.00 -2.00 -1.00  1.00  2.00  0.00  0.00
E_2u   2.00 -1.00 -1.00  2.00  0.00  0.00 -2.00  1.00  1.00 -2.00  0.00  0.00

     the symmetry operations in each class and the name of the first element:

     E        1
          identity                                               
     2C6      5    6
           60 deg rotation - cryst. axis [0,0,1]                 
     2C3      7    8
          120 deg rotation - cryst. axis [0,0,1]                 
     C2       2
          180 deg rotation - cart. axis [0,0,1]                  
     3C2'     4   12   11
          180 deg rotation - cart. axis [1,0,0]                  
     3C2''    3    9   10
          180 deg rotation - cart. axis [0,1,0]                  
     i       13
          inversion                                              
     2S3     17   18
          inv.  60 deg rotation - cryst. axis [0,0,1]            
     2S6     19   20
          inv. 120 deg rotation - cryst. axis [0,0,1]            
     s_h     14
          inv. 180 deg rotation - cart. axis [0,0,1]             
     3s_d    16   24   23
          inv. 180 deg rotation - cart. axis [1,0,0]             
     3s_v    15   21   22
          inv. 180 deg rotation - cart. axis [0,1,0]             

   Cartesian axes

     site n.     atom                  positions (alat units)
         1           C   tau(   1) = (   0.0000000   0.0000000   0.0000000  )
         2           C   tau(   2) = (   0.0000000   0.5773503   0.0000000  )
         3           C   tau(   3) = (   0.0000000   0.5773503   1.3586676  )
         4           C   tau(   4) = (   0.5000000   0.2886751   1.3586676  )

   Crystallographic axes

     site n.     atom                  positions (cryst. coord.)
         1           C   tau(   1) = (  0.0000000  0.0000000  0.0000000  )
         2           C   tau(   2) = (  0.3333333  0.6666667  0.0000000  )
         3           C   tau(   3) = (  0.3333333  0.6666667  0.5000000  )
         4           C   tau(   4) = (  0.6666667  0.3333333  0.5000000  )

     number of k points=   503  Gaussian smearing, width (Ry)=  0.1000
                       cart. coord. in units 2pi/alat
        k(    1) = (   0.0000000   0.0000000   0.0000000), wk =   0.0039761
        k(    2) = (   0.0033670   0.0058318   0.0000000), wk =   0.0039761
        k(    3) = (   0.0067340   0.0116636   0.0000000), wk =   0.0039761
        k(    4) = (   0.0101010   0.0174955   0.0000000), wk =   0.0039761
        k(    5) = (   0.0134680   0.0233273   0.0000000), wk =   0.0039761
        k(    6) = (   0.0168350   0.0291591   0.0000000), wk =   0.0039761
        k(    7) = (   0.0202020   0.0349909   0.0000000), wk =   0.0039761
        k(    8) = (   0.0235690   0.0408227   0.0000000), wk =   0.0039761
        k(    9) = (   0.0269360   0.0466546   0.0000000), wk =   0.0039761
        k(   10) = (   0.0303030   0.0524864   0.0000000), wk =   0.0039761
        k(   11) = (   0.0336700   0.0583182   0.0000000), wk =   0.0039761
        k(   12) = (   0.0370370   0.0641500   0.0000000), wk =   0.0039761
        k(   13) = (   0.0404040   0.0699819   0.0000000), wk =   0.0039761
        k(   14) = (   0.0437710   0.0758137   0.0000000), wk =   0.0039761
        k(   15) = (   0.0471380   0.0816455   0.0000000), wk =   0.0039761
        k(   16) = (   0.0505051   0.0874773   0.0000000), wk =   0.0039761
        k(   17) = (   0.0538721   0.0933091   0.0000000), wk =   0.0039761
        k(   18) = (   0.0572391   0.0991410   0.0000000), wk =   0.0039761
        k(   19) = (   0.0606061   0.1049728   0.0000000), wk =   0.0039761
        k(   20) = (   0.0639731   0.1108046   0.0000000), wk =   0.0039761
        k(   21) = (   0.0673401   0.1166364   0.0000000), wk =   0.0039761
        k(   22) = (   0.0707071   0.1224682   0.0000000), wk =   0.0039761
        k(   23) = (   0.0740741   0.1283001   0.0000000), wk =   0.0039761
        k(   24) = (   0.0774411   0.1341319   0.0000000), wk =   0.0039761
        k(   25) = (   0.0808081   0.1399637   0.0000000), wk =   0.0039761
        k(   26) = (   0.0841751   0.1457955   0.0000000), wk =   0.0039761
        k(   27) = (   0.0875421   0.1516273   0.0000000), wk =   0.0039761
        k(   28) = (   0.0909091   0.1574592   0.0000000), wk =   0.0039761
        k(   29) = (   0.0942761   0.1632910   0.0000000), wk =   0.0039761
        k(   30) = (   0.0976431   0.1691228   0.0000000), wk =   0.0039761
        k(   31) = (   0.1010101   0.1749546   0.0000000), wk =   0.0039761
        k(   32) = (   0.1043771   0.1807864   0.0000000), wk =   0.0039761
        k(   33) = (   0.1077441   0.1866183   0.0000000), wk =   0.0039761
        k(   34) = (   0.1111111   0.1924501   0.0000000), wk =   0.0039761
        k(   35) = (   0.1144781   0.1982819   0.0000000), wk =   0.0039761
        k(   36) = (   0.1178451   0.2041137   0.0000000), wk =   0.0039761
        k(   37) = (   0.1212121   0.2099456   0.0000000), wk =   0.0039761
        k(   38) = (   0.1245791   0.2157774   0.0000000), wk =   0.0039761
        k(   39) = (   0.1279461   0.2216092   0.0000000), wk =   0.0039761
        k(   40) = (   0.1313131   0.2274410   0.0000000), wk =   0.0039761
        k(   41) = (   0.1346801   0.2332728   0.0000000), wk =   0.0039761
        k(   42) = (   0.1380471   0.2391047   0.0000000), wk =   0.0039761
        k(   43) = (   0.1414141   0.2449365   0.0000000), wk =   0.0039761
        k(   44) = (   0.1447811   0.2507683   0.0000000), wk =   0.0039761
        k(   45) = (   0.1481481   0.2566001   0.0000000), wk =   0.0039761
        k(   46) = (   0.1515152   0.2624319   0.0000000), wk =   0.0039761
        k(   47) = (   0.1548822   0.2682638   0.0000000), wk =   0.0039761
        k(   48) = (   0.1582492   0.2740956   0.0000000), wk =   0.0039761
        k(   49) = (   0.1616162   0.2799274   0.0000000), wk =   0.0039761
        k(   50) = (   0.1649832   0.2857592   0.0000000), wk =   0.0039761
        k(   51) = (   0.1683502   0.2915910   0.0000000), wk =   0.0039761
        k(   52) = (   0.1717172   0.2974229   0.0000000), wk =   0.0039761
        k(   53) = (   0.1750842   0.3032547   0.0000000), wk =   0.0039761
        k(   54) = (   0.1784512   0.3090865   0.0000000), wk =   0.0039761
        k(   55) = (   0.1818182   0.3149183   0.0000000), wk =   0.0039761
        k(   56) = (   0.1851852   0.3207501   0.0000000), wk =   0.0039761
        k(   57) = (   0.1885522   0.3265820   0.0000000), wk =   0.0039761
        k(   58) = (   0.1919192   0.3324138   0.0000000), wk =   0.0039761
        k(   59) = (   0.1952862   0.3382456   0.0000000), wk =   0.0039761
        k(   60) = (   0.1986532   0.3440774   0.0000000), wk =   0.0039761
        k(   61) = (   0.2020202   0.3499093   0.0000000), wk =   0.0039761
        k(   62) = (   0.2053872   0.3557411   0.0000000), wk =   0.0039761
        k(   63) = (   0.2087542   0.3615729   0.0000000), wk =   0.0039761
        k(   64) = (   0.2121212   0.3674047   0.0000000), wk =   0.0039761
        k(   65) = (   0.2154882   0.3732365   0.0000000), wk =   0.0039761
        k(   66) = (   0.2188552   0.3790684   0.0000000), wk =   0.0039761
        k(   67) = (   0.2222222   0.3849002   0.0000000), wk =   0.0039761
        k(   68) = (   0.2255892   0.3907320   0.0000000), wk =   0.0039761
        k(   69) = (   0.2289562   0.3965638   0.0000000), wk =   0.0039761
        k(   70) = (   0.2323232   0.4023956   0.0000000), wk =   0.0039761
        k(   71) = (   0.2356902   0.4082275   0.0000000), wk =   0.0039761
        k(   72) = (   0.2390572   0.4140593   0.0000000), wk =   0.0039761
        k(   73) = (   0.2424242   0.4198911   0.0000000), wk =   0.0039761
        k(   74) = (   0.2457912   0.4257229   0.0000000), wk =   0.0039761
        k(   75) = (   0.2491582   0.4315547   0.0000000), wk =   0.0039761
        k(   76) = (   0.2525253   0.4373866   0.0000000), wk =   0.0039761
        k(   77) = (   0.2558923   0.4432184   0.0000000), wk =   0.0039761
        k(   78) = (   0.2592593   0.4490502   0.0000000), wk =   0.0039761
        k(   79) = (   0.2626263   0.4548820   0.0000000), wk =   0.0039761
        k(   80) = (   0.2659933   0.4607139   0.0000000), wk =   0.0039761
        k(   81) = (   0.2693603   0.4665457   0.0000000), wk =   0.0039761
        k(   82) = (   0.2727273   0.4723775   0.0000000), wk =   0.0039761
        k(   83) = (   0.2760943   0.4782093   0.0000000), wk =   0.0039761
        k(   84) = (   0.2794613   0.4840411   0.0000000), wk =   0.0039761
        k(   85) = (   0.2828283   0.4898730   0.0000000), wk =   0.0039761
        k(   86) = (   0.2861953   0.4957048   0.0000000), wk =   0.0039761
        k(   87) = (   0.2895623   0.5015366   0.0000000), wk =   0.0039761
        k(   88) = (   0.2929293   0.5073684   0.0000000), wk =   0.0039761
        k(   89) = (   0.2962963   0.5132002   0.0000000), wk =   0.0039761
        k(   90) = (   0.2996633   0.5190321   0.0000000), wk =   0.0039761
        k(   91) = (   0.3030303   0.5248639   0.0000000), wk =   0.0039761
        k(   92) = (   0.3063973   0.5306957   0.0000000), wk =   0.0039761
        k(   93) = (   0.3097643   0.5365275   0.0000000), wk =   0.0039761
        k(   94) = (   0.3131313   0.5423593   0.0000000), wk =   0.0039761
        k(   95) = (   0.3164983   0.5481912   0.0000000), wk =   0.0039761
        k(   96) = (   0.3198653   0.5540230   0.0000000), wk =   0.0039761
        k(   97) = (   0.3232323   0.5598548   0.0000000), wk =   0.0039761
        k(   98) = (   0.3265993   0.5656866   0.0000000), wk =   0.0039761
        k(   99) = (   0.3299663   0.5715184   0.0000000), wk =   0.0039761
        k(  100) = (   0.3333333   0.5773503   0.0000000), wk =   0.0039761
        k(  101) = (   0.3367347   0.5714589   0.0000000), wk =   0.0039761
        k(  102) = (   0.3401361   0.5655676   0.0000000), wk =   0.0039761
        k(  103) = (   0.3435374   0.5596763   0.0000000), wk =   0.0039761
        k(  104) = (   0.3469388   0.5537850   0.0000000), wk =   0.0039761
        k(  105) = (   0.3503401   0.5478936   0.0000000), wk =   0.0039761
        k(  106) = (   0.3537415   0.5420023   0.0000000), wk =   0.0039761
        k(  107) = (   0.3571429   0.5361110   0.0000000), wk =   0.0039761
        k(  108) = (   0.3605442   0.5302196   0.0000000), wk =   0.0039761
        k(  109) = (   0.3639456   0.5243283   0.0000000), wk =   0.0039761
        k(  110) = (   0.3673469   0.5184370   0.0000000), wk =   0.0039761
        k(  111) = (   0.3707483   0.5125456   0.0000000), wk =   0.0039761
        k(  112) = (   0.3741497   0.5066543   0.0000000), wk =   0.0039761
        k(  113) = (   0.3775510   0.5007630   0.0000000), wk =   0.0039761
        k(  114) = (   0.3809524   0.4948717   0.0000000), wk =   0.0039761
        k(  115) = (   0.3843537   0.4889803   0.0000000), wk =   0.0039761
        k(  116) = (   0.3877551   0.4830890   0.0000000), wk =   0.0039761
        k(  117) = (   0.3911565   0.4771977   0.0000000), wk =   0.0039761
        k(  118) = (   0.3945578   0.4713063   0.0000000), wk =   0.0039761
        k(  119) = (   0.3979592   0.4654150   0.0000000), wk =   0.0039761
        k(  120) = (   0.4013605   0.4595237   0.0000000), wk =   0.0039761
        k(  121) = (   0.4047619   0.4536324   0.0000000), wk =   0.0039761
        k(  122) = (   0.4081633   0.4477410   0.0000000), wk =   0.0039761
        k(  123) = (   0.4115646   0.4418497   0.0000000), wk =   0.0039761
        k(  124) = (   0.4149660   0.4359584   0.0000000), wk =   0.0039761
        k(  125) = (   0.4183673   0.4300670   0.0000000), wk =   0.0039761
        k(  126) = (   0.4217687   0.4241757   0.0000000), wk =   0.0039761
        k(  127) = (   0.4251701   0.4182844   0.0000000), wk =   0.0039761
        k(  128) = (   0.4285714   0.4123930   0.0000000), wk =   0.0039761
        k(  129) = (   0.4319728   0.4065017   0.0000000), wk =   0.0039761
        k(  130) = (   0.4353741   0.4006104   0.0000000), wk =   0.0039761
        k(  131) = (   0.4387755   0.3947191   0.0000000), wk =   0.0039761
        k(  132) = (   0.4421769   0.3888277   0.0000000), wk =   0.0039761
        k(  133) = (   0.4455782   0.3829364   0.0000000), wk =   0.0039761
        k(  134) = (   0.4489796   0.3770451   0.0000000), wk =   0.0039761
        k(  135) = (   0.4523810   0.3711537   0.0000000), wk =   0.0039761
        k(  136) = (   0.4557823   0.3652624   0.0000000), wk =   0.0039761
        k(  137) = (   0.4591837   0.3593711   0.0000000), wk =   0.0039761
        k(  138) = (   0.4625850   0.3534798   0.0000000), wk =   0.0039761
        k(  139) = (   0.4659864   0.3475884   0.0000000), wk =   0.0039761
        k(  140) = (   0.4693878   0.3416971   0.0000000), wk =   0.0039761
        k(  141) = (   0.4727891   0.3358058   0.0000000), wk =   0.0039761
        k(  142) = (   0.4761905   0.3299144   0.0000000), wk =   0.0039761
        k(  143) = (   0.4795918   0.3240231   0.0000000), wk =   0.0039761
        k(  144) = (   0.4829932   0.3181318   0.0000000), wk =   0.0039761
        k(  145) = (   0.4863946   0.3122405   0.0000000), wk =   0.0039761
        k(  146) = (   0.4897959   0.3063491   0.0000000), wk =   0.0039761
        k(  147) = (   0.4931973   0.3004578   0.0000000), wk =   0.0039761
        k(  148) = (   0.4965986   0.2945665   0.0000000), wk =   0.0039761
        k(  149) = (   0.5000000   0.2886751   0.0000000), wk =   0.0039761
        k(  150) = (   0.4942529   0.2853570   0.0000000), wk =   0.0039761
        k(  151) = (   0.4885057   0.2820389   0.0000000), wk =   0.0039761
        k(  152) = (   0.4827586   0.2787208   0.0000000), wk =   0.0039761
        k(  153) = (   0.4770115   0.2754027   0.0000000), wk =   0.0039761
        k(  154) = (   0.4712644   0.2720846   0.0000000), wk =   0.0039761
        k(  155) = (   0.4655172   0.2687665   0.0000000), wk =   0.0039761
        k(  156) = (   0.4597701   0.2654484   0.0000000), wk =   0.0039761
        k(  157) = (   0.4540230   0.2621303   0.0000000), wk =   0.0039761
        k(  158) = (   0.4482759   0.2588122   0.0000000), wk =   0.0039761
        k(  159) = (   0.4425287   0.2554941   0.0000000), wk =   0.0039761
        k(  160) = (   0.4367816   0.2521760   0.0000000), wk =   0.0039761
        k(  161) = (   0.4310345   0.2488579   0.0000000), wk =   0.0039761
        k(  162) = (   0.4252874   0.2455398   0.0000000), wk =   0.0039761
        k(  163) = (   0.4195402   0.2422217   0.0000000), wk =   0.0039761
        k(  164) = (   0.4137931   0.2389036   0.0000000), wk =   0.0039761
        k(  165) = (   0.4080460   0.2355855   0.0000000), wk =   0.0039761
        k(  166) = (   0.4022989   0.2322673   0.0000000), wk =   0.0039761
        k(  167) = (   0.3965517   0.2289492   0.0000000), wk =   0.0039761
        k(  168) = (   0.3908046   0.2256311   0.0000000), wk =   0.0039761
        k(  169) = (   0.3850575   0.2223130   0.0000000), wk =   0.0039761
        k(  170) = (   0.3793103   0.2189949   0.0000000), wk =   0.0039761
        k(  171) = (   0.3735632   0.2156768   0.0000000), wk =   0.0039761
        k(  172) = (   0.3678161   0.2123587   0.0000000), wk =   0.0039761
        k(  173) = (   0.3620690   0.2090406   0.0000000), wk =   0.0039761
        k(  174) = (   0.3563218   0.2057225   0.0000000), wk =   0.0039761
        k(  175) = (   0.3505747   0.2024044   0.0000000), wk =   0.0039761
        k(  176) = (   0.3448276   0.1990863   0.0000000), wk =   0.0039761
        k(  177) = (   0.3390805   0.1957682   0.0000000), wk =   0.0039761
        k(  178) = (   0.3333333   0.1924501   0.0000000), wk =   0.0039761
        k(  179) = (   0.3275862   0.1891320   0.0000000), wk =   0.0039761
        k(  180) = (   0.3218391   0.1858139   0.0000000), wk =   0.0039761
        k(  181) = (   0.3160920   0.1824958   0.0000000), wk =   0.0039761
        k(  182) = (   0.3103448   0.1791777   0.0000000), wk =   0.0039761
        k(  183) = (   0.3045977   0.1758596   0.0000000), wk =   0.0039761
        k(  184) = (   0.2988506   0.1725415   0.0000000), wk =   0.0039761
        k(  185) = (   0.2931034   0.1692234   0.0000000), wk =   0.0039761
        k(  186) = (   0.2873563   0.1659052   0.0000000), wk =   0.0039761
        k(  187) = (   0.2816092   0.1625871   0.0000000), wk =   0.0039761
        k(  188) = (   0.2758621   0.1592690   0.0000000), wk =   0.0039761
        k(  189) = (   0.2701149   0.1559509   0.0000000), wk =   0.0039761
        k(  190) = (   0.2643678   0.1526328   0.0000000), wk =   0.0039761
        k(  191) = (   0.2586207   0.1493147   0.0000000), wk =   0.0039761
        k(  192) = (   0.2528736   0.1459966   0.0000000), wk =   0.0039761
        k(  193) = (   0.2471264   0.1426785   0.0000000), wk =   0.0039761
        k(  194) = (   0.2413793   0.1393604   0.0000000), wk =   0.0039761
        k(  195) = (   0.2356322   0.1360423   0.0000000), wk =   0.0039761
        k(  196) = (   0.2298851   0.1327242   0.0000000), wk =   0.0039761
        k(  197) = (   0.2241379   0.1294061   0.0000000), wk =   0.0039761
        k(  198) = (   0.2183908   0.1260880   0.0000000), wk =   0.0039761
        k(  199) = (   0.2126437   0.1227699   0.0000000), wk =   0.0039761
        k(  200) = (   0.2068966   0.1194518   0.0000000), wk =   0.0039761
        k(  201) = (   0.2011494   0.1161337   0.0000000), wk =   0.0039761
        k(  202) = (   0.1954023   0.1128156   0.0000000), wk =   0.0039761
        k(  203) = (   0.1896552   0.1094975   0.0000000), wk =   0.0039761
        k(  204) = (   0.1839080   0.1061794   0.0000000), wk =   0.0039761
        k(  205) = (   0.1781609   0.1028613   0.0000000), wk =   0.0039761
        k(  206) = (   0.1724138   0.0995431   0.0000000), wk =   0.0039761
        k(  207) = (   0.1666667   0.0962250   0.0000000), wk =   0.0039761
        k(  208) = (   0.1609195   0.0929069   0.0000000), wk =   0.0039761
        k(  209) = (   0.1551724   0.0895888   0.0000000), wk =   0.0039761
        k(  210) = (   0.1494253   0.0862707   0.0000000), wk =   0.0039761
        k(  211) = (   0.1436782   0.0829526   0.0000000), wk =   0.0039761
        k(  212) = (   0.1379310   0.0796345   0.0000000), wk =   0.0039761
        k(  213) = (   0.1321839   0.0763164   0.0000000), wk =   0.0039761
        k(  214) = (   0.1264368   0.0729983   0.0000000), wk =   0.0039761
        k(  215) = (   0.1206897   0.0696802   0.0000000), wk =   0.0039761
        k(  216) = (   0.1149425   0.0663621   0.0000000), wk =   0.0039761
        k(  217) = (   0.1091954   0.0630440   0.0000000), wk =   0.0039761
        k(  218) = (   0.1034483   0.0597259   0.0000000), wk =   0.0039761
        k(  219) = (   0.0977011   0.0564078   0.0000000), wk =   0.0039761
        k(  220) = (   0.0919540   0.0530897   0.0000000), wk =   0.0039761
        k(  221) = (   0.0862069   0.0497716   0.0000000), wk =   0.0039761
        k(  222) = (   0.0804598   0.0464535   0.0000000), wk =   0.0039761
        k(  223) = (   0.0747126   0.0431354   0.0000000), wk =   0.0039761
        k(  224) = (   0.0689655   0.0398173   0.0000000), wk =   0.0039761
        k(  225) = (   0.0632184   0.0364992   0.0000000), wk =   0.0039761
        k(  226) = (   0.0574713   0.0331810   0.0000000), wk =   0.0039761
        k(  227) = (   0.0517241   0.0298629   0.0000000), wk =   0.0039761
        k(  228) = (   0.0459770   0.0265448   0.0000000), wk =   0.0039761
        k(  229) = (   0.0402299   0.0232267   0.0000000), wk =   0.0039761
        k(  230) = (   0.0344828   0.0199086   0.0000000), wk =   0.0039761
        k(  231) = (   0.0287356   0.0165905   0.0000000), wk =   0.0039761
        k(  232) = (   0.0229885   0.0132724   0.0000000), wk =   0.0039761
        k(  233) = (   0.0172414   0.0099543   0.0000000), wk =   0.0039761
        k(  234) = (   0.0114943   0.0066362   0.0000000), wk =   0.0039761
        k(  235) = (   0.0057471   0.0033181   0.0000000), wk =   0.0039761
        k(  236) = (   0.0000000   0.0000000   0.0000000), wk =   0.0039761
        k(  237) = (   0.0000000   0.0000000   0.0068150), wk =   0.0039761
        k(  238) = (   0.0000000   0.0000000   0.0136299), wk =   0.0039761
        k(  239) = (   0.0000000   0.0000000   0.0204449), wk =   0.0039761
        k(  240) = (   0.0000000   0.0000000   0.0272598), wk =   0.0039761
        k(  241) = (   0.0000000   0.0000000   0.0340748), wk =   0.0039761
        k(  242) = (   0.0000000   0.0000000   0.0408897), wk =   0.0039761
        k(  243) = (   0.0000000   0.0000000   0.0477047), wk =   0.0039761
        k(  244) = (   0.0000000   0.0000000   0.0545196), wk =   0.0039761
        k(  245) = (   0.0000000   0.0000000   0.0613346), wk =   0.0039761
        k(  246) = (   0.0000000   0.0000000   0.0681496), wk =   0.0039761
        k(  247) = (   0.0000000   0.0000000   0.0749645), wk =   0.0039761
        k(  248) = (   0.0000000   0.0000000   0.0817795), wk =   0.0039761
        k(  249) = (   0.0000000   0.0000000   0.0885944), wk =   0.0039761
        k(  250) = (   0.0000000   0.0000000   0.0954094), wk =   0.0039761
        k(  251) = (   0.0000000   0.0000000   0.1022243), wk =   0.0039761
        k(  252) = (   0.0000000   0.0000000   0.1090393), wk =   0.0039761
        k(  253) = (   0.0000000   0.0000000   0.1158542), wk =   0.0039761
        k(  254) = (   0.0000000   0.0000000   0.1226692), wk =   0.0039761
        k(  255) = (   0.0000000   0.0000000   0.1294842), wk =   0.0039761
        k(  256) = (   0.0000000   0.0000000   0.1362991), wk =   0.0039761
        k(  257) = (   0.0000000   0.0000000   0.1431141), wk =   0.0039761
        k(  258) = (   0.0000000   0.0000000   0.1499290), wk =   0.0039761
        k(  259) = (   0.0000000   0.0000000   0.1567440), wk =   0.0039761
        k(  260) = (   0.0000000   0.0000000   0.1635589), wk =   0.0039761
        k(  261) = (   0.0000000   0.0000000   0.1703739), wk =   0.0039761
        k(  262) = (   0.0000000   0.0000000   0.1771888), wk =   0.0039761
        k(  263) = (   0.0000000   0.0000000   0.1840038), wk =   0.0039761
        k(  264) = (   0.0033003   0.0057163   0.1840038), wk =   0.0039761
        k(  265) = (   0.0066007   0.0114327   0.1840038), wk =   0.0039761
        k(  266) = (   0.0099010   0.0171490   0.1840038), wk =   0.0039761
        k(  267) = (   0.0132013   0.0228654   0.1840038), wk =   0.0039761
        k(  268) = (   0.0165017   0.0285817   0.1840038), wk =   0.0039761
        k(  269) = (   0.0198020   0.0342980   0.1840038), wk =   0.0039761
        k(  270) = (   0.0231023   0.0400144   0.1840038), wk =   0.0039761
        k(  271) = (   0.0264026   0.0457307   0.1840038), wk =   0.0039761
        k(  272) = (   0.0297030   0.0514471   0.1840038), wk =   0.0039761
        k(  273) = (   0.0330033   0.0571634   0.1840038), wk =   0.0039761
        k(  274) = (   0.0363036   0.0628797   0.1840038), wk =   0.0039761
        k(  275) = (   0.0396040   0.0685961   0.1840038), wk =   0.0039761
        k(  276) = (   0.0429043   0.0743124   0.1840038), wk =   0.0039761
        k(  277) = (   0.0462046   0.0800288   0.1840038), wk =   0.0039761
        k(  278) = (   0.0495050   0.0857451   0.1840038), wk =   0.0039761
        k(  279) = (   0.0528053   0.0914614   0.1840038), wk =   0.0039761
        k(  280) = (   0.0561056   0.0971778   0.1840038), wk =   0.0039761
        k(  281) = (   0.0594059   0.1028941   0.1840038), wk =   0.0039761
        k(  282) = (   0.0627063   0.1086104   0.1840038), wk =   0.0039761
        k(  283) = (   0.0660066   0.1143268   0.1840038), wk =   0.0039761
        k(  284) = (   0.0693069   0.1200431   0.1840038), wk =   0.0039761
        k(  285) = (   0.0726073   0.1257595   0.1840038), wk =   0.0039761
        k(  286) = (   0.0759076   0.1314758   0.1840038), wk =   0.0039761
        k(  287) = (   0.0792079   0.1371921   0.1840038), wk =   0.0039761
        k(  288) = (   0.0825083   0.1429085   0.1840038), wk =   0.0039761
        k(  289) = (   0.0858086   0.1486248   0.1840038), wk =   0.0039761
        k(  290) = (   0.0891089   0.1543412   0.1840038), wk =   0.0039761
        k(  291) = (   0.0924092   0.1600575   0.1840038), wk =   0.0039761
        k(  292) = (   0.0957096   0.1657738   0.1840038), wk =   0.0039761
        k(  293) = (   0.0990099   0.1714902   0.1840038), wk =   0.0039761
        k(  294) = (   0.1023102   0.1772065   0.1840038), wk =   0.0039761
        k(  295) = (   0.1056106   0.1829229   0.1840038), wk =   0.0039761
        k(  296) = (   0.1089109   0.1886392   0.1840038), wk =   0.0039761
        k(  297) = (   0.1122112   0.1943555   0.1840038), wk =   0.0039761
        k(  298) = (   0.1155116   0.2000719   0.1840038), wk =   0.0039761
        k(  299) = (   0.1188119   0.2057882   0.1840038), wk =   0.0039761
        k(  300) = (   0.1221122   0.2115046   0.1840038), wk =   0.0039761
        k(  301) = (   0.1254125   0.2172209   0.1840038), wk =   0.0039761
        k(  302) = (   0.1287129   0.2229372   0.1840038), wk =   0.0039761
        k(  303) = (   0.1320132   0.2286536   0.1840038), wk =   0.0039761
        k(  304) = (   0.1353135   0.2343699   0.1840038), wk =   0.0039761
        k(  305) = (   0.1386139   0.2400863   0.1840038), wk =   0.0039761
        k(  306) = (   0.1419142   0.2458026   0.1840038), wk =   0.0039761
        k(  307) = (   0.1452145   0.2515189   0.1840038), wk =   0.0039761
        k(  308) = (   0.1485149   0.2572353   0.1840038), wk =   0.0039761
        k(  309) = (   0.1518152   0.2629516   0.1840038), wk =   0.0039761
        k(  310) = (   0.1551155   0.2686679   0.1840038), wk =   0.0039761
        k(  311) = (   0.1584158   0.2743843   0.1840038), wk =   0.0039761
        k(  312) = (   0.1617162   0.2801006   0.1840038), wk =   0.0039761
        k(  313) = (   0.1650165   0.2858170   0.1840038), wk =   0.0039761
        k(  314) = (   0.1683168   0.2915333   0.1840038), wk =   0.0039761
        k(  315) = (   0.1716172   0.2972496   0.1840038), wk =   0.0039761
        k(  316) = (   0.1749175   0.3029660   0.1840038), wk =   0.0039761
        k(  317) = (   0.1782178   0.3086823   0.1840038), wk =   0.0039761
        k(  318) = (   0.1815182   0.3143987   0.1840038), wk =   0.0039761
        k(  319) = (   0.1848185   0.3201150   0.1840038), wk =   0.0039761
        k(  320) = (   0.1881188   0.3258313   0.1840038), wk =   0.0039761
        k(  321) = (   0.1914191   0.3315477   0.1840038), wk =   0.0039761
        k(  322) = (   0.1947195   0.3372640   0.1840038), wk =   0.0039761
        k(  323) = (   0.1980198   0.3429804   0.1840038), wk =   0.0039761
        k(  324) = (   0.2013201   0.3486967   0.1840038), wk =   0.0039761
        k(  325) = (   0.2046205   0.3544130   0.1840038), wk =   0.0039761
        k(  326) = (   0.2079208   0.3601294   0.1840038), wk =   0.0039761
        k(  327) = (   0.2112211   0.3658457   0.1840038), wk =   0.0039761
        k(  328) = (   0.2145215   0.3715621   0.1840038), wk =   0.0039761
        k(  329) = (   0.2178218   0.3772784   0.1840038), wk =   0.0039761
        k(  330) = (   0.2211221   0.3829947   0.1840038), wk =   0.0039761
        k(  331) = (   0.2244224   0.3887111   0.1840038), wk =   0.0039761
        k(  332) = (   0.2277228   0.3944274   0.1840038), wk =   0.0039761
        k(  333) = (   0.2310231   0.4001438   0.1840038), wk =   0.0039761
        k(  334) = (   0.2343234   0.4058601   0.1840038), wk =   0.0039761
        k(  335) = (   0.2376238   0.4115764   0.1840038), wk =   0.0039761
        k(  336) = (   0.2409241   0.4172928   0.1840038), wk =   0.0039761
        k(  337) = (   0.2442244   0.4230091   0.1840038), wk =   0.0039761
        k(  338) = (   0.2475248   0.4287254   0.1840038), wk =   0.0039761
        k(  339) = (   0.2508251   0.4344418   0.1840038), wk =   0.0039761
        k(  340) = (   0.2541254   0.4401581   0.1840038), wk =   0.0039761
        k(  341) = (   0.2574257   0.4458745   0.1840038), wk =   0.0039761
        k(  342) = (   0.2607261   0.4515908   0.1840038), wk =   0.0039761
        k(  343) = (   0.2640264   0.4573071   0.1840038), wk =   0.0039761
        k(  344) = (   0.2673267   0.4630235   0.1840038), wk =   0.0039761
        k(  345) = (   0.2706271   0.4687398   0.1840038), wk =   0.0039761
        k(  346) = (   0.2739274   0.4744562   0.1840038), wk =   0.0039761
        k(  347) = (   0.2772277   0.4801725   0.1840038), wk =   0.0039761
        k(  348) = (   0.2805281   0.4858888   0.1840038), wk =   0.0039761
        k(  349) = (   0.2838284   0.4916052   0.1840038), wk =   0.0039761
        k(  350) = (   0.2871287   0.4973215   0.1840038), wk =   0.0039761
        k(  351) = (   0.2904290   0.5030379   0.1840038), wk =   0.0039761
        k(  352) = (   0.2937294   0.5087542   0.1840038), wk =   0.0039761
        k(  353) = (   0.2970297   0.5144705   0.1840038), wk =   0.0039761
        k(  354) = (   0.3003300   0.5201869   0.1840038), wk =   0.0039761
        k(  355) = (   0.3036304   0.5259032   0.1840038), wk =   0.0039761
        k(  356) = (   0.3069307   0.5316196   0.1840038), wk =   0.0039761
        k(  357) = (   0.3102310   0.5373359   0.1840038), wk =   0.0039761
        k(  358) = (   0.3135314   0.5430522   0.1840038), wk =   0.0039761
        k(  359) = (   0.3168317   0.5487686   0.1840038), wk =   0.0039761
        k(  360) = (   0.3201320   0.5544849   0.1840038), wk =   0.0039761
        k(  361) = (   0.3234323   0.5602013   0.1840038), wk =   0.0039761
        k(  362) = (   0.3267327   0.5659176   0.1840038), wk =   0.0039761
        k(  363) = (   0.3300330   0.5716339   0.1840038), wk =   0.0039761
        k(  364) = (   0.3333333   0.5773503   0.1840038), wk =   0.0039761
        k(  365) = (   0.3366667   0.5715768   0.1840038), wk =   0.0039761
        k(  366) = (   0.3400000   0.5658033   0.1840038), wk =   0.0039761
        k(  367) = (   0.3433333   0.5600298   0.1840038), wk =   0.0039761
        k(  368) = (   0.3466667   0.5542563   0.1840038), wk =   0.0039761
        k(  369) = (   0.3500000   0.5484828   0.1840038), wk =   0.0039761
        k(  370) = (   0.3533333   0.5427093   0.1840038), wk =   0.0039761
        k(  371) = (   0.3566667   0.5369358   0.1840038), wk =   0.0039761
        k(  372) = (   0.3600000   0.5311622   0.1840038), wk =   0.0039761
        k(  373) = (   0.3633333   0.5253887   0.1840038), wk =   0.0039761
        k(  374) = (   0.3666667   0.5196152   0.1840038), wk =   0.0039761
        k(  375) = (   0.3700000   0.5138417   0.1840038), wk =   0.0039761
        k(  376) = (   0.3733333   0.5080682   0.1840038), wk =   0.0039761
        k(  377) = (   0.3766667   0.5022947   0.1840038), wk =   0.0039761
        k(  378) = (   0.3800000   0.4965212   0.1840038), wk =   0.0039761
        k(  379) = (   0.3833333   0.4907477   0.1840038), wk =   0.0039761
        k(  380) = (   0.3866667   0.4849742   0.1840038), wk =   0.0039761
        k(  381) = (   0.3900000   0.4792007   0.1840038), wk =   0.0039761
        k(  382) = (   0.3933333   0.4734272   0.1840038), wk =   0.0039761
        k(  383) = (   0.3966667   0.4676537   0.1840038), wk =   0.0039761
        k(  384) = (   0.4000000   0.4618802   0.1840038), wk =   0.0039761
        k(  385) = (   0.4033333   0.4561067   0.1840038), wk =   0.0039761
        k(  386) = (   0.4066667   0.4503332   0.1840038), wk =   0.0039761
        k(  387) = (   0.4100000   0.4445597   0.1840038), wk =   0.0039761
        k(  388) = (   0.4133333   0.4387862   0.1840038), wk =   0.0039761
        k(  389) = (   0.4166667   0.4330127   0.1840038), wk =   0.0039761
        k(  390) = (   0.4200000   0.4272392   0.1840038), wk =   0.0039761
        k(  391) = (   0.4233333   0.4214657   0.1840038), wk =   0.0039761
        k(  392) = (   0.4266667   0.4156922   0.1840038), wk =   0.0039761
        k(  393) = (   0.4300000   0.4099187   0.1840038), wk =   0.0039761
        k(  394) = (   0.4333333   0.4041452   0.1840038), wk =   0.0039761
        k(  395) = (   0.4366667   0.3983717   0.1840038), wk =   0.0039761
        k(  396) = (   0.4400000   0.3925982   0.1840038), wk =   0.0039761
        k(  397) = (   0.4433333   0.3868247   0.1840038), wk =   0.0039761
        k(  398) = (   0.4466667   0.3810512   0.1840038), wk =   0.0039761
        k(  399) = (   0.4500000   0.3752777   0.1840038), wk =   0.0039761
        k(  400) = (   0.4533333   0.3695042   0.1840038), wk =   0.0039761
        k(  401) = (   0.4566667   0.3637307   0.1840038), wk =   0.0039761
        k(  402) = (   0.4600000   0.3579572   0.1840038), wk =   0.0039761
        k(  403) = (   0.4633333   0.3521837   0.1840038), wk =   0.0039761
        k(  404) = (   0.4666667   0.3464102   0.1840038), wk =   0.0039761
        k(  405) = (   0.4700000   0.3406367   0.1840038), wk =   0.0039761
        k(  406) = (   0.4733333   0.3348632   0.1840038), wk =   0.0039761
        k(  407) = (   0.4766667   0.3290897   0.1840038), wk =   0.0039761
        k(  408) = (   0.4800000   0.3233162   0.1840038), wk =   0.0039761
        k(  409) = (   0.4833333   0.3175426   0.1840038), wk =   0.0039761
        k(  410) = (   0.4866667   0.3117691   0.1840038), wk =   0.0039761
        k(  411) = (   0.4900000   0.3059956   0.1840038), wk =   0.0039761
        k(  412) = (   0.4933333   0.3002221   0.1840038), wk =   0.0039761
        k(  413) = (   0.4966667   0.2944486   0.1840038), wk =   0.0039761
        k(  414) = (   0.5000000   0.2886751   0.1840038), wk =   0.0039761
        k(  415) = (   0.4943820   0.2854316   0.1840038), wk =   0.0039761
        k(  416) = (   0.4887640   0.2821881   0.1840038), wk =   0.0039761
        k(  417) = (   0.4831461   0.2789445   0.1840038), wk =   0.0039761
        k(  418) = (   0.4775281   0.2757010   0.1840038), wk =   0.0039761
        k(  419) = (   0.4719101   0.2724574   0.1840038), wk =   0.0039761
        k(  420) = (   0.4662921   0.2692139   0.1840038), wk =   0.0039761
        k(  421) = (   0.4606742   0.2659703   0.1840038), wk =   0.0039761
        k(  422) = (   0.4550562   0.2627268   0.1840038), wk =   0.0039761
        k(  423) = (   0.4494382   0.2594833   0.1840038), wk =   0.0039761
        k(  424) = (   0.4438202   0.2562397   0.1840038), wk =   0.0039761
        k(  425) = (   0.4382022   0.2529962   0.1840038), wk =   0.0039761
        k(  426) = (   0.4325843   0.2497526   0.1840038), wk =   0.0039761
        k(  427) = (   0.4269663   0.2465091   0.1840038), wk =   0.0039761
        k(  428) = (   0.4213483   0.2432656   0.1840038), wk =   0.0039761
        k(  429) = (   0.4157303   0.2400220   0.1840038), wk =   0.0039761
        k(  430) = (   0.4101124   0.2367785   0.1840038), wk =   0.0039761
        k(  431) = (   0.4044944   0.2335349   0.1840038), wk =   0.0039761
        k(  432) = (   0.3988764   0.2302914   0.1840038), wk =   0.0039761
        k(  433) = (   0.3932584   0.2270479   0.1840038), wk =   0.0039761
        k(  434) = (   0.3876404   0.2238043   0.1840038), wk =   0.0039761
        k(  435) = (   0.3820225   0.2205608   0.1840038), wk =   0.0039761
        k(  436) = (   0.3764045   0.2173172   0.1840038), wk =   0.0039761
        k(  437) = (   0.3707865   0.2140737   0.1840038), wk =   0.0039761
        k(  438) = (   0.3651685   0.2108302   0.1840038), wk =   0.0039761
        k(  439) = (   0.3595506   0.2075866   0.1840038), wk =   0.0039761
        k(  440) = (   0.3539326   0.2043431   0.1840038), wk =   0.0039761
        k(  441) = (   0.3483146   0.2010995   0.1840038), wk =   0.0039761
        k(  442) = (   0.3426966   0.1978560   0.1840038), wk =   0.0039761
        k(  443) = (   0.3370787   0.1946125   0.1840038), wk =   0.0039761
        k(  444) = (   0.3314607   0.1913689   0.1840038), wk =   0.0039761
        k(  445) = (   0.3258427   0.1881254   0.1840038), wk =   0.0039761
        k(  446) = (   0.3202247   0.1848818   0.1840038), wk =   0.0039761
        k(  447) = (   0.3146067   0.1816383   0.1840038), wk =   0.0039761
        k(  448) = (   0.3089888   0.1783947   0.1840038), wk =   0.0039761
        k(  449) = (   0.3033708   0.1751512   0.1840038), wk =   0.0039761
        k(  450) = (   0.2977528   0.1719077   0.1840038), wk =   0.0039761
        k(  451) = (   0.2921348   0.1686641   0.1840038), wk =   0.0039761
        k(  452) = (   0.2865169   0.1654206   0.1840038), wk =   0.0039761
        k(  453) = (   0.2808989   0.1621770   0.1840038), wk =   0.0039761
        k(  454) = (   0.2752809   0.1589335   0.1840038), wk =   0.0039761
        k(  455) = (   0.2696629   0.1556900   0.1840038), wk =   0.0039761
        k(  456) = (   0.2640449   0.1524464   0.1840038), wk =   0.0039761
        k(  457) = (   0.2584270   0.1492029   0.1840038), wk =   0.0039761
        k(  458) = (   0.2528090   0.1459593   0.1840038), wk =   0.0039761
        k(  459) = (   0.2471910   0.1427158   0.1840038), wk =   0.0039761
        k(  460) = (   0.2415730   0.1394723   0.1840038), wk =   0.0039761
        k(  461) = (   0.2359551   0.1362287   0.1840038), wk =   0.0039761
        k(  462) = (   0.2303371   0.1329852   0.1840038), wk =   0.0039761
        k(  463) = (   0.2247191   0.1297416   0.1840038), wk =   0.0039761
        k(  464) = (   0.2191011   0.1264981   0.1840038), wk =   0.0039761
        k(  465) = (   0.2134831   0.1232546   0.1840038), wk =   0.0039761
        k(  466) = (   0.2078652   0.1200110   0.1840038), wk =   0.0039761
        k(  467) = (   0.2022472   0.1167675   0.1840038), wk =   0.0039761
        k(  468) = (   0.1966292   0.1135239   0.1840038), wk =   0.0039761
        k(  469) = (   0.1910112   0.1102804   0.1840038), wk =   0.0039761
        k(  470) = (   0.1853933   0.1070368   0.1840038), wk =   0.0039761
        k(  471) = (   0.1797753   0.1037933   0.1840038), wk =   0.0039761
        k(  472) = (   0.1741573   0.1005498   0.1840038), wk =   0.0039761
        k(  473) = (   0.1685393   0.0973062   0.1840038), wk =   0.0039761
        k(  474) = (   0.1629213   0.0940627   0.1840038), wk =   0.0039761
        k(  475) = (   0.1573034   0.0908191   0.1840038), wk =   0.0039761
        k(  476) = (   0.1516854   0.0875756   0.1840038), wk =   0.0039761
        k(  477) = (   0.1460674   0.0843321   0.1840038), wk =   0.0039761
        k(  478) = (   0.1404494   0.0810885   0.1840038), wk =   0.0039761
        k(  479) = (   0.1348315   0.0778450   0.1840038), wk =   0.0039761
        k(  480) = (   0.1292135   0.0746014   0.1840038), wk =   0.0039761
        k(  481) = (   0.1235955   0.0713579   0.1840038), wk =   0.0039761
        k(  482) = (   0.1179775   0.0681144   0.1840038), wk =   0.0039761
        k(  483) = (   0.1123596   0.0648708   0.1840038), wk =   0.0039761
        k(  484) = (   0.1067416   0.0616273   0.1840038), wk =   0.0039761
        k(  485) = (   0.1011236   0.0583837   0.1840038), wk =   0.0039761
        k(  486) = (   0.0955056   0.0551402   0.1840038), wk =   0.0039761
        k(  487) = (   0.0898876   0.0518967   0.1840038), wk =   0.0039761
        k(  488) = (   0.0842697   0.0486531   0.1840038), wk =   0.0039761
        k(  489) = (   0.0786517   0.0454096   0.1840038), wk =   0.0039761
        k(  490) = (   0.0730337   0.0421660   0.1840038), wk =   0.0039761
        k(  491) = (   0.0674157   0.0389225   0.1840038), wk =   0.0039761
        k(  492) = (   0.0617978   0.0356789   0.1840038), wk =   0.0039761
        k(  493) = (   0.0561798   0.0324354   0.1840038), wk =   0.0039761
        k(  494) = (   0.0505618   0.0291919   0.1840038), wk =   0.0039761
        k(  495) = (   0.0449438   0.0259483   0.1840038), wk =   0.0039761
        k(  496) = (   0.0393258   0.0227048   0.1840038), wk =   0.0039761
        k(  497) = (   0.0337079   0.0194612   0.1840038), wk =   0.0039761
        k(  498) = (   0.0280899   0.0162177   0.1840038), wk =   0.0039761
        k(  499) = (   0.0224719   0.0129742   0.1840038), wk =   0.0039761
        k(  500) = (   0.0168539   0.0097306   0.1840038), wk =   0.0039761
        k(  501) = (   0.0112360   0.0064871   0.1840038), wk =   0.0039761
        k(  502) = (   0.0056180   0.0032435   0.1840038), wk =   0.0039761
        k(  503) = (   0.0000000   0.0000000   0.1840038), wk =   0.0039761

                       cryst. coord.
        k(    1) = (   0.0000000   0.0000000   0.0000000), wk =   0.0039761
        k(    2) = (   0.0033670   0.0033670   0.0000000), wk =   0.0039761
        k(    3) = (   0.0067340   0.0067340   0.0000000), wk =   0.0039761
        k(    4) = (   0.0101010   0.0101010   0.0000000), wk =   0.0039761
        k(    5) = (   0.0134680   0.0134680   0.0000000), wk =   0.0039761
        k(    6) = (   0.0168350   0.0168350   0.0000000), wk =   0.0039761
        k(    7) = (   0.0202020   0.0202020   0.0000000), wk =   0.0039761
        k(    8) = (   0.0235690   0.0235690   0.0000000), wk =   0.0039761
        k(    9) = (   0.0269360   0.0269360   0.0000000), wk =   0.0039761
        k(   10) = (   0.0303030   0.0303030   0.0000000), wk =   0.0039761
        k(   11) = (   0.0336700   0.0336700   0.0000000), wk =   0.0039761
        k(   12) = (   0.0370370   0.0370370   0.0000000), wk =   0.0039761
        k(   13) = (   0.0404040   0.0404040   0.0000000), wk =   0.0039761
        k(   14) = (   0.0437710   0.0437710   0.0000000), wk =   0.0039761
        k(   15) = (   0.0471380   0.0471380   0.0000000), wk =   0.0039761
        k(   16) = (   0.0505051   0.0505051   0.0000000), wk =   0.0039761
        k(   17) = (   0.0538721   0.0538721   0.0000000), wk =   0.0039761
        k(   18) = (   0.0572391   0.0572391   0.0000000), wk =   0.0039761
        k(   19) = (   0.0606061   0.0606061   0.0000000), wk =   0.0039761
        k(   20) = (   0.0639731   0.0639731   0.0000000), wk =   0.0039761
        k(   21) = (   0.0673401   0.0673401   0.0000000), wk =   0.0039761
        k(   22) = (   0.0707071   0.0707071   0.0000000), wk =   0.0039761
        k(   23) = (   0.0740741   0.0740741   0.0000000), wk =   0.0039761
        k(   24) = (   0.0774411   0.0774411   0.0000000), wk =   0.0039761
        k(   25) = (   0.0808081   0.0808081   0.0000000), wk =   0.0039761
        k(   26) = (   0.0841751   0.0841751   0.0000000), wk =   0.0039761
        k(   27) = (   0.0875421   0.0875421   0.0000000), wk =   0.0039761
        k(   28) = (   0.0909091   0.0909091   0.0000000), wk =   0.0039761
        k(   29) = (   0.0942761   0.0942761   0.0000000), wk =   0.0039761
        k(   30) = (   0.0976431   0.0976431   0.0000000), wk =   0.0039761
        k(   31) = (   0.1010101   0.1010101   0.0000000), wk =   0.0039761
        k(   32) = (   0.1043771   0.1043771   0.0000000), wk =   0.0039761
        k(   33) = (   0.1077441   0.1077441   0.0000000), wk =   0.0039761
        k(   34) = (   0.1111111   0.1111111   0.0000000), wk =   0.0039761
        k(   35) = (   0.1144781   0.1144781   0.0000000), wk =   0.0039761
        k(   36) = (   0.1178451   0.1178451   0.0000000), wk =   0.0039761
        k(   37) = (   0.1212121   0.1212121   0.0000000), wk =   0.0039761
        k(   38) = (   0.1245791   0.1245791   0.0000000), wk =   0.0039761
        k(   39) = (   0.1279461   0.1279461   0.0000000), wk =   0.0039761
        k(   40) = (   0.1313131   0.1313131   0.0000000), wk =   0.0039761
        k(   41) = (   0.1346801   0.1346801   0.0000000), wk =   0.0039761
        k(   42) = (   0.1380471   0.1380471   0.0000000), wk =   0.0039761
        k(   43) = (   0.1414141   0.1414141   0.0000000), wk =   0.0039761
        k(   44) = (   0.1447811   0.1447811   0.0000000), wk =   0.0039761
        k(   45) = (   0.1481481   0.1481481   0.0000000), wk =   0.0039761
        k(   46) = (   0.1515152   0.1515152   0.0000000), wk =   0.0039761
        k(   47) = (   0.1548822   0.1548822   0.0000000), wk =   0.0039761
        k(   48) = (   0.1582492   0.1582492   0.0000000), wk =   0.0039761
        k(   49) = (   0.1616162   0.1616162   0.0000000), wk =   0.0039761
        k(   50) = (   0.1649832   0.1649832   0.0000000), wk =   0.0039761
        k(   51) = (   0.1683502   0.1683502   0.0000000), wk =   0.0039761
        k(   52) = (   0.1717172   0.1717172   0.0000000), wk =   0.0039761
        k(   53) = (   0.1750842   0.1750842   0.0000000), wk =   0.0039761
        k(   54) = (   0.1784512   0.1784512   0.0000000), wk =   0.0039761
        k(   55) = (   0.1818182   0.1818182   0.0000000), wk =   0.0039761
        k(   56) = (   0.1851852   0.1851852   0.0000000), wk =   0.0039761
        k(   57) = (   0.1885522   0.1885522   0.0000000), wk =   0.0039761
        k(   58) = (   0.1919192   0.1919192   0.0000000), wk =   0.0039761
        k(   59) = (   0.1952862   0.1952862   0.0000000), wk =   0.0039761
        k(   60) = (   0.1986532   0.1986532   0.0000000), wk =   0.0039761
        k(   61) = (   0.2020202   0.2020202   0.0000000), wk =   0.0039761
        k(   62) = (   0.2053872   0.2053872   0.0000000), wk =   0.0039761
        k(   63) = (   0.2087542   0.2087542   0.0000000), wk =   0.0039761
        k(   64) = (   0.2121212   0.2121212   0.0000000), wk =   0.0039761
        k(   65) = (   0.2154882   0.2154882   0.0000000), wk =   0.0039761
        k(   66) = (   0.2188552   0.2188552   0.0000000), wk =   0.0039761
        k(   67) = (   0.2222222   0.2222222   0.0000000), wk =   0.0039761
        k(   68) = (   0.2255892   0.2255892   0.0000000), wk =   0.0039761
        k(   69) = (   0.2289562   0.2289562   0.0000000), wk =   0.0039761
        k(   70) = (   0.2323232   0.2323232   0.0000000), wk =   0.0039761
        k(   71) = (   0.2356902   0.2356902   0.0000000), wk =   0.0039761
        k(   72) = (   0.2390572   0.2390572   0.0000000), wk =   0.0039761
        k(   73) = (   0.2424242   0.2424242   0.0000000), wk =   0.0039761
        k(   74) = (   0.2457912   0.2457912   0.0000000), wk =   0.0039761
        k(   75) = (   0.2491582   0.2491582   0.0000000), wk =   0.0039761
        k(   76) = (   0.2525253   0.2525253   0.0000000), wk =   0.0039761
        k(   77) = (   0.2558923   0.2558923   0.0000000), wk =   0.0039761
        k(   78) = (   0.2592593   0.2592593   0.0000000), wk =   0.0039761
        k(   79) = (   0.2626263   0.2626263   0.0000000), wk =   0.0039761
        k(   80) = (   0.2659933   0.2659933   0.0000000), wk =   0.0039761
        k(   81) = (   0.2693603   0.2693603   0.0000000), wk =   0.0039761
        k(   82) = (   0.2727273   0.2727273   0.0000000), wk =   0.0039761
        k(   83) = (   0.2760943   0.2760943   0.0000000), wk =   0.0039761
        k(   84) = (   0.2794613   0.2794613   0.0000000), wk =   0.0039761
        k(   85) = (   0.2828283   0.2828283   0.0000000), wk =   0.0039761
        k(   86) = (   0.2861953   0.2861953   0.0000000), wk =   0.0039761
        k(   87) = (   0.2895623   0.2895623   0.0000000), wk =   0.0039761
        k(   88) = (   0.2929293   0.2929293   0.0000000), wk =   0.0039761
        k(   89) = (   0.2962963   0.2962963   0.0000000), wk =   0.0039761
        k(   90) = (   0.2996633   0.2996633   0.0000000), wk =   0.0039761
        k(   91) = (   0.3030303   0.3030303   0.0000000), wk =   0.0039761
        k(   92) = (   0.3063973   0.3063973   0.0000000), wk =   0.0039761
        k(   93) = (   0.3097643   0.3097643   0.0000000), wk =   0.0039761
        k(   94) = (   0.3131313   0.3131313   0.0000000), wk =   0.0039761
        k(   95) = (   0.3164983   0.3164983   0.0000000), wk =   0.0039761
        k(   96) = (   0.3198653   0.3198653   0.0000000), wk =   0.0039761
        k(   97) = (   0.3232323   0.3232323   0.0000000), wk =   0.0039761
        k(   98) = (   0.3265993   0.3265993   0.0000000), wk =   0.0039761
        k(   99) = (   0.3299663   0.3299663   0.0000000), wk =   0.0039761
        k(  100) = (   0.3333333   0.3333333   0.0000000), wk =   0.0039761
        k(  101) = (   0.3367347   0.3265306   0.0000000), wk =   0.0039761
        k(  102) = (   0.3401361   0.3197279   0.0000000), wk =   0.0039761
        k(  103) = (   0.3435374   0.3129252   0.0000000), wk =   0.0039761
        k(  104) = (   0.3469388   0.3061224   0.0000000), wk =   0.0039761
        k(  105) = (   0.3503401   0.2993197   0.0000000), wk =   0.0039761
        k(  106) = (   0.3537415   0.2925170   0.0000000), wk =   0.0039761
        k(  107) = (   0.3571429   0.2857143   0.0000000), wk =   0.0039761
        k(  108) = (   0.3605442   0.2789116   0.0000000), wk =   0.0039761
        k(  109) = (   0.3639456   0.2721088   0.0000000), wk =   0.0039761
        k(  110) = (   0.3673469   0.2653061   0.0000000), wk =   0.0039761
        k(  111) = (   0.3707483   0.2585034   0.0000000), wk =   0.0039761
        k(  112) = (   0.3741497   0.2517007   0.0000000), wk =   0.0039761
        k(  113) = (   0.3775510   0.2448980   0.0000000), wk =   0.0039761
        k(  114) = (   0.3809524   0.2380952   0.0000000), wk =   0.0039761
        k(  115) = (   0.3843537   0.2312925   0.0000000), wk =   0.0039761
        k(  116) = (   0.3877551   0.2244898   0.0000000), wk =   0.0039761
        k(  117) = (   0.3911565   0.2176871   0.0000000), wk =   0.0039761
        k(  118) = (   0.3945578   0.2108844   0.0000000), wk =   0.0039761
        k(  119) = (   0.3979592   0.2040816   0.0000000), wk =   0.0039761
        k(  120) = (   0.4013605   0.1972789   0.0000000), wk =   0.0039761
        k(  121) = (   0.4047619   0.1904762   0.0000000), wk =   0.0039761
        k(  122) = (   0.4081633   0.1836735   0.0000000), wk =   0.0039761
        k(  123) = (   0.4115646   0.1768707   0.0000000), wk =   0.0039761
        k(  124) = (   0.4149660   0.1700680   0.0000000), wk =   0.0039761
        k(  125) = (   0.4183673   0.1632653   0.0000000), wk =   0.0039761
        k(  126) = (   0.4217687   0.1564626   0.0000000), wk =   0.0039761
        k(  127) = (   0.4251701   0.1496599   0.0000000), wk =   0.0039761
        k(  128) = (   0.4285714   0.1428571   0.0000000), wk =   0.0039761
        k(  129) = (   0.4319728   0.1360544   0.0000000), wk =   0.0039761
        k(  130) = (   0.4353741   0.1292517   0.0000000), wk =   0.0039761
        k(  131) = (   0.4387755   0.1224490   0.0000000), wk =   0.0039761
        k(  132) = (   0.4421769   0.1156463   0.0000000), wk =   0.0039761
        k(  133) = (   0.4455782   0.1088435   0.0000000), wk =   0.0039761
        k(  134) = (   0.4489796   0.1020408   0.0000000), wk =   0.0039761
        k(  135) = (   0.4523810   0.0952381   0.0000000), wk =   0.0039761
        k(  136) = (   0.4557823   0.0884354   0.0000000), wk =   0.0039761
        k(  137) = (   0.4591837   0.0816327   0.0000000), wk =   0.0039761
        k(  138) = (   0.4625850   0.0748299   0.0000000), wk =   0.0039761
        k(  139) = (   0.4659864   0.0680272   0.0000000), wk =   0.0039761
        k(  140) = (   0.4693878   0.0612245   0.0000000), wk =   0.0039761
        k(  141) = (   0.4727891   0.0544218   0.0000000), wk =   0.0039761
        k(  142) = (   0.4761905   0.0476190   0.0000000), wk =   0.0039761
        k(  143) = (   0.4795918   0.0408163   0.0000000), wk =   0.0039761
        k(  144) = (   0.4829932   0.0340136   0.0000000), wk =   0.0039761
        k(  145) = (   0.4863946   0.0272109   0.0000000), wk =   0.0039761
        k(  146) = (   0.4897959   0.0204082   0.0000000), wk =   0.0039761
        k(  147) = (   0.4931973   0.0136054   0.0000000), wk =   0.0039761
        k(  148) = (   0.4965986   0.0068027   0.0000000), wk =   0.0039761
        k(  149) = (   0.5000000   0.0000000   0.0000000), wk =   0.0039761
        k(  150) = (   0.4942529   0.0000000   0.0000000), wk =   0.0039761
        k(  151) = (   0.4885057   0.0000000   0.0000000), wk =   0.0039761
        k(  152) = (   0.4827586   0.0000000   0.0000000), wk =   0.0039761
        k(  153) = (   0.4770115   0.0000000   0.0000000), wk =   0.0039761
        k(  154) = (   0.4712644   0.0000000   0.0000000), wk =   0.0039761
        k(  155) = (   0.4655172   0.0000000   0.0000000), wk =   0.0039761
        k(  156) = (   0.4597701   0.0000000   0.0000000), wk =   0.0039761
        k(  157) = (   0.4540230  -0.0000000   0.0000000), wk =   0.0039761
        k(  158) = (   0.4482759   0.0000000   0.0000000), wk =   0.0039761
        k(  159) = (   0.4425287   0.0000000   0.0000000), wk =   0.0039761
        k(  160) = (   0.4367816   0.0000000   0.0000000), wk =   0.0039761
        k(  161) = (   0.4310345   0.0000000   0.0000000), wk =   0.0039761
        k(  162) = (   0.4252874   0.0000000   0.0000000), wk =   0.0039761
        k(  163) = (   0.4195402   0.0000000   0.0000000), wk =   0.0039761
        k(  164) = (   0.4137931   0.0000000   0.0000000), wk =   0.0039761
        k(  165) = (   0.4080460   0.0000000   0.0000000), wk =   0.0039761
        k(  166) = (   0.4022989   0.0000000   0.0000000), wk =   0.0039761
        k(  167) = (   0.3965517  -0.0000000   0.0000000), wk =   0.0039761
        k(  168) = (   0.3908046   0.0000000   0.0000000), wk =   0.0039761
        k(  169) = (   0.3850575   0.0000000   0.0000000), wk =   0.0039761
        k(  170) = (   0.3793103   0.0000000   0.0000000), wk =   0.0039761
        k(  171) = (   0.3735632  -0.0000000   0.0000000), wk =   0.0039761
        k(  172) = (   0.3678161  -0.0000000   0.0000000), wk =   0.0039761
        k(  173) = (   0.3620690   0.0000000   0.0000000), wk =   0.0039761
        k(  174) = (   0.3563218   0.0000000   0.0000000), wk =   0.0039761
        k(  175) = (   0.3505747  -0.0000000   0.0000000), wk =   0.0039761
        k(  176) = (   0.3448276   0.0000000   0.0000000), wk =   0.0039761
        k(  177) = (   0.3390805   0.0000000   0.0000000), wk =   0.0039761
        k(  178) = (   0.3333333  -0.0000000   0.0000000), wk =   0.0039761
        k(  179) = (   0.3275862   0.0000000   0.0000000), wk =   0.0039761
        k(  180) = (   0.3218391   0.0000000   0.0000000), wk =   0.0039761
        k(  181) = (   0.3160920   0.0000000   0.0000000), wk =   0.0039761
        k(  182) = (   0.3103448   0.0000000   0.0000000), wk =   0.0039761
        k(  183) = (   0.3045977   0.0000000   0.0000000), wk =   0.0039761
        k(  184) = (   0.2988506   0.0000000   0.0000000), wk =   0.0039761
        k(  185) = (   0.2931034   0.0000000   0.0000000), wk =   0.0039761
        k(  186) = (   0.2873563   0.0000000   0.0000000), wk =   0.0039761
        k(  187) = (   0.2816092  -0.0000000   0.0000000), wk =   0.0039761
        k(  188) = (   0.2758621   0.0000000   0.0000000), wk =   0.0039761
        k(  189) = (   0.2701149   0.0000000   0.0000000), wk =   0.0039761
        k(  190) = (   0.2643678   0.0000000   0.0000000), wk =   0.0039761
        k(  191) = (   0.2586207   0.0000000   0.0000000), wk =   0.0039761
        k(  192) = (   0.2528736   0.0000000   0.0000000), wk =   0.0039761
        k(  193) = (   0.2471264   0.0000000   0.0000000), wk =   0.0039761
        k(  194) = (   0.2413793   0.0000000   0.0000000), wk =   0.0039761
        k(  195) = (   0.2356322   0.0000000   0.0000000), wk =   0.0039761
        k(  196) = (   0.2298851   0.0000000   0.0000000), wk =   0.0039761
        k(  197) = (   0.2241379   0.0000000   0.0000000), wk =   0.0039761
        k(  198) = (   0.2183908   0.0000000   0.0000000), wk =   0.0039761
        k(  199) = (   0.2126437   0.0000000   0.0000000), wk =   0.0039761
        k(  200) = (   0.2068966   0.0000000   0.0000000), wk =   0.0039761
        k(  201) = (   0.2011494   0.0000000   0.0000000), wk =   0.0039761
        k(  202) = (   0.1954023  -0.0000000   0.0000000), wk =   0.0039761
        k(  203) = (   0.1896552   0.0000000   0.0000000), wk =   0.0039761
        k(  204) = (   0.1839080  -0.0000000   0.0000000), wk =   0.0039761
        k(  205) = (   0.1781609   0.0000000   0.0000000), wk =   0.0039761
        k(  206) = (   0.1724138   0.0000000   0.0000000), wk =   0.0039761
        k(  207) = (   0.1666667   0.0000000   0.0000000), wk =   0.0039761
        k(  208) = (   0.1609195   0.0000000   0.0000000), wk =   0.0039761
        k(  209) = (   0.1551724   0.0000000   0.0000000), wk =   0.0039761
        k(  210) = (   0.1494253   0.0000000   0.0000000), wk =   0.0039761
        k(  211) = (   0.1436782   0.0000000   0.0000000), wk =   0.0039761
        k(  212) = (   0.1379310   0.0000000   0.0000000), wk =   0.0039761
        k(  213) = (   0.1321839  -0.0000000   0.0000000), wk =   0.0039761
        k(  214) = (   0.1264368   0.0000000   0.0000000), wk =   0.0039761
        k(  215) = (   0.1206897  -0.0000000   0.0000000), wk =   0.0039761
        k(  216) = (   0.1149425   0.0000000   0.0000000), wk =   0.0039761
        k(  217) = (   0.1091954   0.0000000   0.0000000), wk =   0.0039761
        k(  218) = (   0.1034483   0.0000000   0.0000000), wk =   0.0039761
        k(  219) = (   0.0977011   0.0000000   0.0000000), wk =   0.0039761
        k(  220) = (   0.0919540  -0.0000000   0.0000000), wk =   0.0039761
        k(  221) = (   0.0862069   0.0000000   0.0000000), wk =   0.0039761
        k(  222) = (   0.0804598   0.0000000   0.0000000), wk =   0.0039761
        k(  223) = (   0.0747126   0.0000000   0.0000000), wk =   0.0039761
        k(  224) = (   0.0689655   0.0000000   0.0000000), wk =   0.0039761
        k(  225) = (   0.0632184   0.0000000   0.0000000), wk =   0.0039761
        k(  226) = (   0.0574713  -0.0000000   0.0000000), wk =   0.0039761
        k(  227) = (   0.0517241   0.0000000   0.0000000), wk =   0.0039761
        k(  228) = (   0.0459770  -0.0000000   0.0000000), wk =   0.0039761
        k(  229) = (   0.0402299   0.0000000   0.0000000), wk =   0.0039761
        k(  230) = (   0.0344828   0.0000000   0.0000000), wk =   0.0039761
        k(  231) = (   0.0287356  -0.0000000   0.0000000), wk =   0.0039761
        k(  232) = (   0.0229885  -0.0000000   0.0000000), wk =   0.0039761
        k(  233) = (   0.0172414   0.0000000   0.0000000), wk =   0.0039761
        k(  234) = (   0.0114943   0.0000000   0.0000000), wk =   0.0039761
        k(  235) = (   0.0057471   0.0000000   0.0000000), wk =   0.0039761
        k(  236) = (   0.0000000   0.0000000   0.0000000), wk =   0.0039761
        k(  237) = (   0.0000000   0.0000000   0.0185185), wk =   0.0039761
        k(  238) = (   0.0000000   0.0000000   0.0370370), wk =   0.0039761
        k(  239) = (   0.0000000   0.0000000   0.0555556), wk =   0.0039761
        k(  240) = (   0.0000000   0.0000000   0.0740741), wk =   0.0039761
        k(  241) = (   0.0000000   0.0000000   0.0925926), wk =   0.0039761
        k(  242) = (   0.0000000   0.0000000   0.1111111), wk =   0.0039761
        k(  243) = (   0.0000000   0.0000000   0.1296296), wk =   0.0039761
        k(  244) = (   0.0000000   0.0000000   0.1481481), wk =   0.0039761
        k(  245) = (   0.0000000   0.0000000   0.1666667), wk =   0.0039761
        k(  246) = (   0.0000000   0.0000000   0.1851852), wk =   0.0039761
        k(  247) = (   0.0000000   0.0000000   0.2037037), wk =   0.0039761
        k(  248) = (   0.0000000   0.0000000   0.2222222), wk =   0.0039761
        k(  249) = (   0.0000000   0.0000000   0.2407407), wk =   0.0039761
        k(  250) = (   0.0000000   0.0000000   0.2592593), wk =   0.0039761
        k(  251) = (   0.0000000   0.0000000   0.2777778), wk =   0.0039761
        k(  252) = (   0.0000000   0.0000000   0.2962963), wk =   0.0039761
        k(  253) = (   0.0000000   0.0000000   0.3148148), wk =   0.0039761
        k(  254) = (   0.0000000   0.0000000   0.3333333), wk =   0.0039761
        k(  255) = (   0.0000000   0.0000000   0.3518519), wk =   0.0039761
        k(  256) = (   0.0000000   0.0000000   0.3703704), wk =   0.0039761
        k(  257) = (   0.0000000   0.0000000   0.3888889), wk =   0.0039761
        k(  258) = (   0.0000000   0.0000000   0.4074074), wk =   0.0039761
        k(  259) = (   0.0000000   0.0000000   0.4259259), wk =   0.0039761
        k(  260) = (   0.0000000   0.0000000   0.4444444), wk =   0.0039761
        k(  261) = (   0.0000000   0.0000000   0.4629630), wk =   0.0039761
        k(  262) = (   0.0000000   0.0000000   0.4814815), wk =   0.0039761
        k(  263) = (   0.0000000   0.0000000   0.5000000), wk =   0.0039761
        k(  264) = (   0.0033003   0.0033003   0.5000000), wk =   0.0039761
        k(  265) = (   0.0066007   0.0066007   0.5000000), wk =   0.0039761
        k(  266) = (   0.0099010   0.0099010   0.5000000), wk =   0.0039761
        k(  267) = (   0.0132013   0.0132013   0.5000000), wk =   0.0039761
        k(  268) = (   0.0165017   0.0165017   0.5000000), wk =   0.0039761
        k(  269) = (   0.0198020   0.0198020   0.5000000), wk =   0.0039761
        k(  270) = (   0.0231023   0.0231023   0.5000000), wk =   0.0039761
        k(  271) = (   0.0264026   0.0264026   0.5000000), wk =   0.0039761
        k(  272) = (   0.0297030   0.0297030   0.5000000), wk =   0.0039761
        k(  273) = (   0.0330033   0.0330033   0.5000000), wk =   0.0039761
        k(  274) = (   0.0363036   0.0363036   0.5000000), wk =   0.0039761
        k(  275) = (   0.0396040   0.0396040   0.5000000), wk =   0.0039761
        k(  276) = (   0.0429043   0.0429043   0.5000000), wk =   0.0039761
        k(  277) = (   0.0462046   0.0462046   0.5000000), wk =   0.0039761
        k(  278) = (   0.0495050   0.0495050   0.5000000), wk =   0.0039761
        k(  279) = (   0.0528053   0.0528053   0.5000000), wk =   0.0039761
        k(  280) = (   0.0561056   0.0561056   0.5000000), wk =   0.0039761
        k(  281) = (   0.0594059   0.0594059   0.5000000), wk =   0.0039761
        k(  282) = (   0.0627063   0.0627063   0.5000000), wk =   0.0039761
        k(  283) = (   0.0660066   0.0660066   0.5000000), wk =   0.0039761
        k(  284) = (   0.0693069   0.0693069   0.5000000), wk =   0.0039761
        k(  285) = (   0.0726073   0.0726073   0.5000000), wk =   0.0039761
        k(  286) = (   0.0759076   0.0759076   0.5000000), wk =   0.0039761
        k(  287) = (   0.0792079   0.0792079   0.5000000), wk =   0.0039761
        k(  288) = (   0.0825083   0.0825083   0.5000000), wk =   0.0039761
        k(  289) = (   0.0858086   0.0858086   0.5000000), wk =   0.0039761
        k(  290) = (   0.0891089   0.0891089   0.5000000), wk =   0.0039761
        k(  291) = (   0.0924092   0.0924092   0.5000000), wk =   0.0039761
        k(  292) = (   0.0957096   0.0957096   0.5000000), wk =   0.0039761
        k(  293) = (   0.0990099   0.0990099   0.5000000), wk =   0.0039761
        k(  294) = (   0.1023102   0.1023102   0.5000000), wk =   0.0039761
        k(  295) = (   0.1056106   0.1056106   0.5000000), wk =   0.0039761
        k(  296) = (   0.1089109   0.1089109   0.5000000), wk =   0.0039761
        k(  297) = (   0.1122112   0.1122112   0.5000000), wk =   0.0039761
        k(  298) = (   0.1155116   0.1155116   0.5000000), wk =   0.0039761
        k(  299) = (   0.1188119   0.1188119   0.5000000), wk =   0.0039761
        k(  300) = (   0.1221122   0.1221122   0.5000000), wk =   0.0039761
        k(  301) = (   0.1254125   0.1254125   0.5000000), wk =   0.0039761
        k(  302) = (   0.1287129   0.1287129   0.5000000), wk =   0.0039761
        k(  303) = (   0.1320132   0.1320132   0.5000000), wk =   0.0039761
        k(  304) = (   0.1353135   0.1353135   0.5000000), wk =   0.0039761
        k(  305) = (   0.1386139   0.1386139   0.5000000), wk =   0.0039761
        k(  306) = (   0.1419142   0.1419142   0.5000000), wk =   0.0039761
        k(  307) = (   0.1452145   0.1452145   0.5000000), wk =   0.0039761
        k(  308) = (   0.1485149   0.1485149   0.5000000), wk =   0.0039761
        k(  309) = (   0.1518152   0.1518152   0.5000000), wk =   0.0039761
        k(  310) = (   0.1551155   0.1551155   0.5000000), wk =   0.0039761
[...]
     9.1463   9.1463  14.7244  14.7244  18.5847  18.5847  21.1123  21.1123

          k = 0.4382 0.2530 0.1840 (  1826 PWs)   bands (ev):

    -8.0525  -8.0525  -5.2030  -5.2030   0.6386   0.6386   4.0371   4.0371
     9.2532   9.2532  14.7315  14.7315  18.4818  18.4818  21.2144  21.2144

          k = 0.4326 0.2498 0.1840 (  1826 PWs)   bands (ev):

    -8.1586  -8.1586  -5.0716  -5.0716   0.6558   0.6558   3.9512   3.9512
     9.3663   9.3663  14.7392  14.7392  18.3782  18.3782  21.3170  21.3170

          k = 0.4270 0.2465 0.1840 (  1830 PWs)   bands (ev):

    -8.2642  -8.2642  -4.9386  -4.9386   0.6746   0.6746   3.8621   3.8621
     9.4848   9.4848  14.7475  14.7475  18.2741  18.2741  21.4197  21.4197

          k = 0.4213 0.2433 0.1840 (  1832 PWs)   bands (ev):

    -8.3690  -8.3690  -4.8042  -4.8042   0.6948   0.6948   3.7703   3.7703
     9.6082   9.6082  14.7565  14.7565  18.1699  18.1699  21.5221  21.5221

          k = 0.4157 0.2400 0.1840 (  1828 PWs)   bands (ev):

    -8.4730  -8.4730  -4.6685  -4.6685   0.7164   0.7164   3.6762   3.6762
     9.7362   9.7362  14.7660  14.7660  18.0657  18.0657  21.6239  21.6239

          k = 0.4101 0.2368 0.1840 (  1828 PWs)   bands (ev):

    -8.5762  -8.5762  -4.5316  -4.5316   0.7395   0.7395   3.5803   3.5803
     9.8681   9.8681  14.7761  14.7761  17.9618  17.9618  21.7247  21.7247

          k = 0.4045 0.2335 0.1840 (  1828 PWs)   bands (ev):

    -8.6783  -8.6783  -4.3935  -4.3935   0.7641   0.7641   3.4830   3.4830
    10.0036  10.0036  14.7868  14.7868  17.8583  17.8583  21.8244  21.8244

          k = 0.3989 0.2303 0.1840 (  1824 PWs)   bands (ev):

    -8.7794  -8.7794  -4.2544  -4.2544   0.7901   0.7901   3.3846   3.3846
    10.1424  10.1424  14.7979  14.7979  17.7553  17.7553  21.9225  21.9225

          k = 0.3933 0.2270 0.1840 (  1828 PWs)   bands (ev):

    -8.8795  -8.8795  -4.1143  -4.1143   0.8175   0.8175   3.2853   3.2853
    10.2840  10.2840  14.8096  14.8096  17.6529  17.6529  22.0188  22.0188

          k = 0.3876 0.2238 0.1840 (  1832 PWs)   bands (ev):

    -8.9784  -8.9784  -3.9733  -3.9733   0.8463   0.8463   3.1854   3.1854
    10.4283  10.4283  14.8218  14.8218  17.5513  17.5513  22.1129  22.1129

          k = 0.3820 0.2206 0.1840 (  1830 PWs)   bands (ev):

    -9.0761  -9.0761  -3.8314  -3.8314   0.8765   0.8765   3.0852   3.0852
    10.5750  10.5750  14.8345  14.8345  17.4506  17.4506  22.2045  22.2045

          k = 0.3764 0.2173 0.1840 (  1822 PWs)   bands (ev):

    -9.1727  -9.1727  -3.6887  -3.6887   0.9081   0.9081   2.9849   2.9849
    10.7237  10.7237  14.8475  14.8475  17.3508  17.3508  22.2932  22.2932

          k = 0.3708 0.2141 0.1840 (  1822 PWs)   bands (ev):

    -9.2681  -9.2681  -3.5453  -3.5453   0.9411   0.9411   2.8846   2.8846
    10.8743  10.8743  14.8610  14.8610  17.2520  17.2520  22.3785  22.3785

          k = 0.3652 0.2108 0.1840 (  1820 PWs)   bands (ev):

    -9.3622  -9.3622  -3.4011  -3.4011   0.9754   0.9754   2.7845   2.7845
    11.0266  11.0266  14.8748  14.8748  17.1543  17.1543  22.4599  22.4599

          k = 0.3596 0.2076 0.1840 (  1820 PWs)   bands (ev):

    -9.4552  -9.4552  -3.2562  -3.2562   1.0110   1.0110   2.6847   2.6847
    11.1804  11.1804  14.8889  14.8889  17.0578  17.0578  22.5369  22.5369

          k = 0.3539 0.2043 0.1840 (  1824 PWs)   bands (ev):

    -9.5468  -9.5468  -3.1107  -3.1107   1.0480   1.0480   2.5855   2.5855
    11.3354  11.3354  14.9033  14.9033  16.9625  16.9625  22.6088  22.6088

          k = 0.3483 0.2011 0.1840 (  1824 PWs)   bands (ev):

    -9.6372  -9.6372  -2.9646  -2.9646   1.0863   1.0863   2.4867   2.4867
    11.4915  11.4915  14.9179  14.9179  16.8686  16.8686  22.6751  22.6751

          k = 0.3427 0.1979 0.1840 (  1828 PWs)   bands (ev):

    -9.7263  -9.7263  -2.8180  -2.8180   1.1259   1.1259   2.3887   2.3887
    11.6486  11.6486  14.9326  14.9326  16.7761  16.7761  22.7351  22.7351

          k = 0.3371 0.1946 0.1840 (  1832 PWs)   bands (ev):

    -9.8141  -9.8141  -2.6709  -2.6709   1.1667   1.1667   2.2915   2.2915
    11.8065  11.8065  14.9474  14.9474  16.6851  16.6851  22.7880  22.7880

          k = 0.3315 0.1914 0.1840 (  1832 PWs)   bands (ev):

    -9.9005  -9.9005  -2.5233  -2.5233   1.2088   1.2088   2.1951   2.1951
    11.9651  11.9651  14.9621  14.9621  16.5958  16.5958  22.8333  22.8333

          k = 0.3258 0.1881 0.1840 (  1828 PWs)   bands (ev):

    -9.9856  -9.9856  -2.3752  -2.3752   1.2521   1.2521   2.0996   2.0996
    12.1241  12.1241  14.9768  14.9768  16.5082  16.5082  22.8702  22.8702

          k = 0.3202 0.1849 0.1840 (  1830 PWs)   bands (ev):

   -10.0695 -10.0694  -2.2269  -2.2269   1.2966   1.2966   2.0052   2.0052
    12.2834  12.2834  14.9913  14.9913  16.4225  16.4225  22.8983  22.8983

          k = 0.3146 0.1816 0.1840 (  1834 PWs)   bands (ev):

   -10.1519 -10.1519  -2.0782  -2.0782   1.3423   1.3423   1.9118   1.9118
    12.4430  12.4430  15.0053  15.0053  16.3389  16.3389  22.8231  22.8231

          k = 0.3090 0.1784 0.1840 (  1836 PWs)   bands (ev):

   -10.2330 -10.2330  -1.9293  -1.9293   1.3891   1.3891   1.8195   1.8195
    12.6025  12.6025  15.0189  15.0189  16.2575  16.2575  22.6291  22.6291

          k = 0.3034 0.1752 0.1840 (  1828 PWs)   bands (ev):

   -10.3127 -10.3127  -1.7801  -1.7801   1.4371   1.4371   1.7284   1.7284
    12.7620  12.7620  15.0317  15.0317  16.1786  16.1786  22.4348  22.4348

          k = 0.2978 0.1719 0.1840 (  1828 PWs)   bands (ev):

   -10.3911 -10.3911  -1.6308  -1.6308   1.4861   1.4861   1.6386   1.6386
    12.9211  12.9211  15.0435  15.0435  16.1024  16.1024  22.2404  22.2404

          k = 0.2921 0.1687 0.1840 (  1832 PWs)   bands (ev):

   -10.4681 -10.4681  -1.4814  -1.4814   1.5363   1.5363   1.5500   1.5500
    13.0797  13.0797  15.0540  15.0540  16.0294  16.0294  22.0461  22.0461

          k = 0.2865 0.1654 0.1840 (  1828 PWs)   bands (ev):

   -10.5437 -10.5437  -1.3319  -1.3319   1.4627   1.4627   1.5874   1.5874
    13.2377  13.2377  15.0629  15.0629  15.9599  15.9599  21.8520  21.8520

          k = 0.2809 0.1622 0.1840 (  1832 PWs)   bands (ev):

   -10.6180 -10.6180  -1.1825  -1.1825   1.3767   1.3767   1.6396   1.6396
    13.3947  13.3947  15.0697  15.0697  15.8946  15.8946  21.6582  21.6582

          k = 0.2753 0.1589 0.1840 (  1836 PWs)   bands (ev):

   -10.6908 -10.6908  -1.0331  -1.0331   1.2921   1.2921   1.6927   1.6927
    13.5504  13.5504  15.0739  15.0739  15.8340  15.8340  21.4650  21.4650

          k = 0.2697 0.1557 0.1840 (  1834 PWs)   bands (ev):

   -10.7622 -10.7622  -0.8839  -0.8839   1.2089   1.2089   1.7467   1.7467
    13.7045  13.7045  15.0749  15.0749  15.7790  15.7790  21.2725  21.2725

          k = 0.2640 0.1524 0.1840 (  1830 PWs)   bands (ev):

   -10.8322 -10.8322  -0.7349  -0.7349   1.1272   1.1272   1.8016   1.8016
    13.8565  13.8565  15.0725  15.0725  15.7303  15.7303  21.0809  21.0809

          k = 0.2584 0.1492 0.1840 (  1824 PWs)   bands (ev):

   -10.9008 -10.9008  -0.5861  -0.5861   1.0469   1.0469   1.8574   1.8574
    14.0055  14.0055  15.0662  15.0662  15.6889  15.6889  20.8903  20.8903

          k = 0.2528 0.1460 0.1840 (  1824 PWs)   bands (ev):

   -10.9680 -10.9680  -0.4377  -0.4377   0.9681   0.9681   1.9139   1.9139
    14.1504  14.1504  15.0566  15.0566  15.6553  15.6553  20.7007  20.7007

          k = 0.2472 0.1427 0.1840 (  1820 PWs)   bands (ev):

   -11.0338 -11.0338  -0.2898  -0.2898   0.8908   0.8908   1.9713   1.9713
    14.2890  14.2890  15.0453  15.0453  15.6299  15.6299  20.5124  20.5124

          k = 0.2416 0.1395 0.1840 (  1824 PWs)   bands (ev):

   -11.0982 -11.0982  -0.1423  -0.1423   0.8151   0.8151   2.0293   2.0293
    14.4175  14.4175  15.0359  15.0359  15.6128  15.6128  20.3255  20.3255

          k = 0.2360 0.1362 0.1840 (  1820 PWs)   bands (ev):

   -11.1611 -11.1611   0.0045   0.0045   0.7410   0.7410   2.0879   2.0879
    14.5285  14.5285  15.0359  15.0359  15.6037  15.6037  20.1401  20.1401

          k = 0.2303 0.1330 0.1840 (  1824 PWs)   bands (ev):

   -11.2226 -11.2226   0.1506   0.1506   0.6684   0.6684   2.1472   2.1472
    14.6102  14.6102  15.0570  15.0570  15.6025  15.6025  19.9563  19.9563

          k = 0.2247 0.1297 0.1840 (  1824 PWs)   bands (ev):

   -11.2827 -11.2827   0.2957   0.2957   0.5977   0.5977   2.2070   2.2070
    14.6519  14.6519  15.1093  15.1093  15.6097  15.6097  19.7743  19.7743

          k = 0.2191 0.1265 0.1840 (  1824 PWs)   bands (ev):

   -11.3413 -11.3413   0.4382   0.4382   0.5303   0.5303   2.2673   2.2673
    14.6571  14.6571  15.1876  15.1876  15.6268  15.6268  19.5942  19.5942

          k = 0.2135 0.1233 0.1840 (  1828 PWs)   bands (ev):

   -11.3985 -11.3985   0.4574   0.4574   0.5869   0.5869   2.3280   2.3280
    14.6389  14.6389  15.2749  15.2749  15.6577  15.6577  19.4161  19.4161

          k = 0.2079 0.1200 0.1840 (  1828 PWs)   bands (ev):

   -11.4542 -11.4542   0.3925   0.3925   0.7283   0.7283   2.3891   2.3891
    14.6077  14.6077  15.3546  15.3546  15.7082  15.7082  19.2402  19.2402

          k = 0.2022 0.1168 0.1840 (  1824 PWs)   bands (ev):

   -11.5085 -11.5085   0.3282   0.3282   0.8695   0.8695   2.4504   2.4504
    14.5695  14.5695  15.4161  15.4161  15.7828  15.7828  19.0665  19.0665

          k = 0.1966 0.1135 0.1840 (  1824 PWs)   bands (ev):

   -11.5613 -11.5613   0.2653   0.2654   1.0095   1.0095   2.5120   2.5120
    14.5276  14.5276  15.4586  15.4586  15.8789  15.8789  18.8952  18.8952

          k = 0.1910 0.1103 0.1840 (  1828 PWs)   bands (ev):

   -11.6127 -11.6127   0.2041   0.2041   1.1483   1.1483   2.5737   2.5737
    14.4836  14.4836  15.4876  15.4876  15.9891  15.9891  18.7264  18.7264

          k = 0.1854 0.1070 0.1840 (  1826 PWs)   bands (ev):

   -11.6626 -11.6626   0.1446   0.1446   1.2856   1.2856   2.6355   2.6355
    14.4387  14.4387  15.5083  15.5083  16.1071  16.1071  18.5602  18.5602

          k = 0.1798 0.1038 0.1840 (  1822 PWs)   bands (ev):

   -11.7110 -11.7110   0.0867   0.0867   1.4214   1.4214   2.6972   2.6972
    14.3935  14.3935  15.5240  15.5240  16.2288  16.2288  18.3968  18.3968

          k = 0.1742 0.1005 0.1840 (  1818 PWs)   bands (ev):

   -11.7580 -11.7580   0.0306   0.0306   1.5554   1.5554   2.7589   2.7589
    14.3484  14.3484  15.5363  15.5363  16.3516  16.3516  18.2363  18.2363

          k = 0.1685 0.0973 0.1840 (  1818 PWs)   bands (ev):

   -11.8035 -11.8035  -0.0239  -0.0239   1.6875   1.6875   2.8203   2.8203
    14.3039  14.3039  15.5462  15.5462  16.4743  16.4743  18.0789  18.0789

          k = 0.1629 0.0941 0.1840 (  1818 PWs)   bands (ev):

   -11.8475 -11.8475  -0.0767  -0.0767   1.8176   1.8176   2.8814   2.8814
    14.2601  14.2601  15.5543  15.5543  16.5960  16.5960  17.9245  17.9245

          k = 0.1573 0.0908 0.1840 (  1818 PWs)   bands (ev):

   -11.8901 -11.8901  -0.1278  -0.1278   1.9456   1.9456   2.9422   2.9422
    14.2172  14.2172  15.5607  15.5607  16.7161  16.7161  17.7734  17.7734

          k = 0.1517 0.0876 0.1840 (  1818 PWs)   bands (ev):

   -11.9312 -11.9312  -0.1771  -0.1771   2.0712   2.0712   3.0024   3.0024
    14.1754  14.1754  15.5657  15.5657  16.8340  16.8340  17.6258  17.6258

          k = 0.1461 0.0843 0.1840 (  1818 PWs)   bands (ev):

   -11.9708 -11.9708  -0.2247  -0.2247   2.1945   2.1945   3.0620   3.0620
    14.1347  14.1347  15.5694  15.5694  16.9496  16.9496  17.4817  17.4817

          k = 0.1404 0.0811 0.1840 (  1822 PWs)   bands (ev):

   -12.0090 -12.0090  -0.2705  -0.2705   2.3151   2.3151   3.1209   3.1209
    14.0952  14.0952  15.5717  15.5717  17.0625  17.0625  17.3413  17.3413

          k = 0.1348 0.0778 0.1840 (  1822 PWs)   bands (ev):

   -12.0456 -12.0456  -0.3146  -0.3146   2.4330   2.4330   3.1790   3.1790
    14.0571  14.0571  15.5729  15.5729  17.1725  17.1725  17.2047  17.2047

          k = 0.1292 0.0746 0.1840 (  1822 PWs)   bands (ev):

   -12.0808 -12.0808  -0.3569  -0.3569   2.5480   2.5480   3.2361   3.2361
    14.0204  14.0204  15.5728  15.5728  17.0722  17.0722  17.2794  17.2794

          k = 0.1236 0.0714 0.1840 (  1822 PWs)   bands (ev):

   -12.1145 -12.1145  -0.3975  -0.3975   2.6599   2.6599   3.2922   3.2922
    13.9850  13.9850  15.5716  15.5716  16.9437  16.9437  17.3831  17.3831

          k = 0.1180 0.0681 0.1840 (  1822 PWs)   bands (ev):

   -12.1467 -12.1467  -0.4363  -0.4363   2.7685   2.7685   3.3471   3.3471
    13.9511  13.9511  15.5693  15.5693  16.8195  16.8195  17.4833  17.4833

          k = 0.1124 0.0649 0.1840 (  1822 PWs)   bands (ev):

   -12.1774 -12.1774  -0.4733  -0.4733   2.8737   2.8737   3.4006   3.4006
    13.9187  13.9187  15.5660  15.5660  16.6997  16.6997  17.5799  17.5799

          k = 0.1067 0.0616 0.1840 (  1822 PWs)   bands (ev):

   -12.2067 -12.2067  -0.5085  -0.5085   2.9753   2.9753   3.4527   3.4527
    13.8877  13.8877  15.5617  15.5617  16.5845  16.5845  17.6728  17.6728

          k = 0.1011 0.0584 0.1840 (  1818 PWs)   bands (ev):

   -12.2344 -12.2344  -0.5420  -0.5420   3.0732   3.0732   3.5032   3.5032
    13.8583  13.8583  15.5566  15.5566  16.4740  16.4740  17.7618  17.7618

          k = 0.0955 0.0551 0.1840 (  1820 PWs)   bands (ev):

   -12.2606 -12.2606  -0.5737  -0.5737   3.1670   3.1670   3.5520   3.5520
    13.8305  13.8305  15.5506  15.5506  16.3684  16.3684  17.8468  17.8468

          k = 0.0899 0.0519 0.1840 (  1820 PWs)   bands (ev):

   -12.2854 -12.2854  -0.6036  -0.6036   3.2567   3.2567   3.5989   3.5989
    13.8042  13.8042  15.5440  15.5440  16.2678  16.2678  17.9277  17.9277

          k = 0.0843 0.0487 0.1840 (  1822 PWs)   bands (ev):

   -12.3086 -12.3086  -0.6317  -0.6317   3.3421   3.3421   3.6439   3.6439
    13.7795  13.7795  15.5368  15.5368  16.1724  16.1724  18.0043  18.0043

          k = 0.0787 0.0454 0.1840 (  1820 PWs)   bands (ev):

   -12.3304 -12.3304  -0.6579  -0.6579   3.4230   3.4230   3.6867   3.6867
    13.7563  13.7563  15.5292  15.5292  16.0823  16.0823  18.0765  18.0765

          k = 0.0730 0.0422 0.1840 (  1820 PWs)   bands (ev):

   -12.3507 -12.3507  -0.6824  -0.6824   3.4992   3.4992   3.7272   3.7272
    13.7347  13.7348  15.5212  15.5212  15.9976  15.9976  18.1443  18.1443

          k = 0.0674 0.0389 0.1840 (  1820 PWs)   bands (ev):

   -12.3694 -12.3694  -0.7051  -0.7051   3.5706   3.5706   3.7654   3.7654
    13.7148  13.7148  15.5131  15.5131  15.9186  15.9186  18.2076  18.2076

          k = 0.0618 0.0357 0.1840 (  1818 PWs)   bands (ev):

   -12.3867 -12.3867  -0.7260  -0.7260   3.6370   3.6370   3.8011   3.8011
    13.6964  13.6964  15.5050  15.5050  15.8453  15.8453  18.2661  18.2661

          k = 0.0562 0.0324 0.1840 (  1818 PWs)   bands (ev):

   -12.4025 -12.4025  -0.7451  -0.7451   3.6982   3.6982   3.8341   3.8341
    13.6796  13.6796  15.4969  15.4969  15.7778  15.7778  18.3199  18.3199

          k = 0.0506 0.0292 0.1840 (  1822 PWs)   bands (ev):

   -12.4168 -12.4168  -0.7623  -0.7623   3.7540   3.7540   3.8644   3.8644
    13.6645  13.6645  15.4891  15.4891  15.7164  15.7164  18.3688  18.3688

          k = 0.0449 0.0259 0.1840 (  1818 PWs)   bands (ev):

   -12.4295 -12.4295  -0.7778  -0.7778   3.8045   3.8045   3.8918   3.8918
    13.6509  13.6509  15.4817  15.4817  15.6611  15.6611  18.4128  18.4128

          k = 0.0393 0.0227 0.1840 (  1814 PWs)   bands (ev):

   -12.4408 -12.4408  -0.7914  -0.7914   3.8493   3.8493   3.9163   3.9163
    13.6389  13.6389  15.4748  15.4748  15.6121  15.6121  18.4518  18.4518

          k = 0.0337 0.0195 0.1840 (  1822 PWs)   bands (ev):

   -12.4506 -12.4506  -0.8033  -0.8033   3.8884   3.8884   3.9376   3.9376
    13.6285  13.6285  15.4686  15.4686  15.5693  15.5693  18.4857  18.4857

          k = 0.0281 0.0162 0.1840 (  1822 PWs)   bands (ev):

   -12.4588 -12.4588  -0.8133  -0.8133   3.9216   3.9216   3.9559   3.9559
    13.6198  13.6198  15.4631  15.4631  15.5330  15.5330  18.5145  18.5145

          k = 0.0225 0.0130 0.1840 (  1826 PWs)   bands (ev):

   -12.4656 -12.4656  -0.8215  -0.8215   3.9489   3.9489   3.9709   3.9709
    13.6126  13.6126  15.4585  15.4585  15.5032  15.5032  18.5382  18.5382

          k = 0.0169 0.0097 0.1840 (  1826 PWs)   bands (ev):

   -12.4709 -12.4709  -0.8278  -0.8278   3.9703   3.9703   3.9827   3.9827
    13.6070  13.6070  15.4548  15.4548  15.4799  15.4799  18.5566  18.5566

          k = 0.0112 0.0065 0.1840 (  1826 PWs)   bands (ev):

   -12.4746 -12.4746  -0.8324  -0.8324   3.9856   3.9856   3.9911   3.9911
    13.6030  13.6030  15.4521  15.4521  15.4632  15.4632  18.5698  18.5698

          k = 0.0056 0.0032 0.1840 (  1830 PWs)   bands (ev):

   -12.4769 -12.4769  -0.8351  -0.8351   3.9948   3.9948   3.9962   3.9962
    13.6006  13.6006  15.4504  15.4504  15.4532  15.4532  18.5777  18.5777

          k = 0.0000 0.0000 0.1840 (  1830 PWs)   bands (ev):

   -12.4776 -12.4776  -0.8361  -0.8361   3.9979   3.9979   3.9979   3.9979
    13.5998  13.5998  15.4499  15.4499  15.4499  15.4499  18.5803  18.5803

     Writing output data file ./tmp/graphite.save/
 
     init_run     :      0.06s CPU      0.09s WALL (       1 calls)
     electrons    :     62.59s CPU     79.86s WALL (       1 calls)

     Called by init_run:
     wfcinit      :      0.00s CPU      0.01s WALL (       1 calls)
     wfcinit:atom :      0.01s CPU      0.01s WALL (     503 calls)
     wfcinit:wfcr :      1.04s CPU      1.33s WALL (     503 calls)
     potinit      :      0.00s CPU      0.01s WALL (       1 calls)
     hinit0       :      0.03s CPU      0.05s WALL (       1 calls)

     Called by electrons:
     c_bands      :     62.58s CPU     79.85s WALL (       1 calls)
     v_of_rho     :      0.00s CPU      0.00s WALL (       1 calls)
     v_h          :      0.00s CPU      0.00s WALL (       1 calls)
     v_xc         :      0.00s CPU      0.00s WALL (       1 calls)
     newd         :      0.00s CPU      0.00s WALL (       1 calls)
     PAW_pot      :      0.00s CPU      0.00s WALL (       1 calls)

     Called by c_bands:
     init_us_2    :      0.01s CPU      0.01s WALL (     503 calls)
     cegterg      :     60.75s CPU     76.80s WALL (    1577 calls)

     Called by sum_band:

     Called by *egterg:
     cdiaghg      :     28.17s CPU     41.07s WALL (   27359 calls)
     cegterg:over :      7.21s CPU      7.16s WALL (   26856 calls)
     cegterg:upda :      1.66s CPU      2.19s WALL (   26856 calls)
     cegterg:last :      3.01s CPU      3.05s WALL (   16198 calls)
     cdiaghg:chol :      1.18s CPU      2.45s WALL (   27359 calls)
     cdiaghg:inve :      0.37s CPU      0.56s WALL (   27359 calls)
     cdiaghg:para :      3.66s CPU      3.54s WALL (   54718 calls)
     h_psi        :     20.56s CPU     23.15s WALL (   28936 calls)
     s_psi        :      0.32s CPU      0.37s WALL (   28936 calls)
     g_psi        :      0.11s CPU      0.17s WALL (   26856 calls)

     Called by h_psi:
     h_psi:calbec :      1.13s CPU      1.15s WALL (   28936 calls)
     vloc_psi     :     18.95s CPU     21.40s WALL (   28936 calls)
     add_vuspsi   :      0.33s CPU      0.42s WALL (   28936 calls)

     General routines
     calbec       :      1.09s CPU      1.10s WALL (   28936 calls)
     fft          :      0.01s CPU      0.03s WALL (       6 calls)
     ffts         :      0.00s CPU      0.00s WALL (       1 calls)
     fftw         :     17.99s CPU     20.22s WALL (  541474 calls)
     interpolate  :      0.00s CPU      0.00s WALL (       1 calls)
     davcio       :      0.02s CPU      0.86s WALL (    1006 calls)
 
     Parallel routines

     PAW routines
     PAW_pot      :      0.00s CPU      0.00s WALL (       1 calls)
 
     PWSCF        :   1m 4.82s CPU   1m27.33s WALL

 
   This run was terminated on:  22:52:35   8Nov2021            

=------------------------------------------------------------------------------=
   JOB DONE.
=------------------------------------------------------------------------------=
