
     Program PWSCF v.6.8 starts on  6Nov2021 at 17:55:27 

     This program is part of the open-source Quantum ESPRESSO suite
     for quantum simulation of materials; please cite
         "P. Giannozzi et al., J. Phys.:Condens. Matter 21 395502 (2009);
         "P. Giannozzi et al., J. Phys.:Condens. Matter 29 465901 (2017);
         "P. Giannozzi et al., J. Chem. Phys. 152 154105 (2020);
          URL http://www.quantum-espresso.org", 
     in publications or presentations arising from this work. More details at
     http://www.quantum-espresso.org/quote

     Parallel version (MPI), running on    24 processors

     MPI processes distributed on     1 nodes
     R & G space division:  proc/nbgrp/npool/nimage =      24
     247011 MiB available memory on the printing compute node when the environment starts
 
     Reading input from scf.pwi
Warning: card &CELL ignored
Warning: card / ignored

     Current dimensions of program PWSCF are:
     Max number of different atomic species (ntypx) = 10
     Max number of k-points (npk) =  40000
     Max angular momentum in pseudopotentials (lmaxx) =  4
     file C.pz-n-kjpaw_psl.1.0.0.UPF: wavefunction(s)  2S 2P renormalized

     Subspace diagonalization in iterative solution of the eigenvalue problem:
     one sub-group per band group will be used
     scalapack distributed-memory algorithm (size of sub-group:  4*  4 procs)

 
     Parallelization info
     --------------------
     sticks:   dense  smooth     PW     G-vecs:    dense   smooth      PW
     Min          29      15      4                 1717      607     102
     Max          30      16      5                 1726      617     111
     Sum         703     361    109                41301    14665    2555
 
     Using Slab Decomposition
 


     bravais-lattice index     =            4
     lattice parameter (alat)  =       4.6252  a.u.
     unit-cell volume          =     232.8418 (a.u.)^3
     number of atoms/cell      =            4
     number of atomic types    =            1
     number of electrons       =        16.00
     number of Kohn-Sham states=           12
     kinetic-energy cutoff     =      60.0000  Ry
     charge density cutoff     =     480.0000  Ry
     scf convergence threshold =      1.0E-12
     mixing beta               =       0.7000
     number of iterations used =            8  plain     mixing
     Exchange-correlation= SLA  PZ   NOGX NOGC
                           (   1   1   0   0   0   0   0)

     celldm(1)=   4.625184  celldm(2)=   0.000000  celldm(3)=   2.717335
     celldm(4)=   0.000000  celldm(5)=   0.000000  celldm(6)=   0.000000

     crystal axes: (cart. coord. in units of alat)
               a(1) = (   1.000000   0.000000   0.000000 )  
               a(2) = (  -0.500000   0.866025   0.000000 )  
               a(3) = (   0.000000   0.000000   2.717335 )  

     reciprocal axes: (cart. coord. in units 2 pi/alat)
               b(1) = (  1.000000  0.577350  0.000000 )  
               b(2) = (  0.000000  1.154701  0.000000 )  
               b(3) = (  0.000000  0.000000  0.368008 )  


     PseudoPot. # 1 for C  read from file:
     /opt/LDA/C.pz-n-kjpaw_psl.1.0.0.UPF
     MD5 check sum: 15019a788ed847dd19cec0d3328e849a
     Pseudo is Projector augmented-wave + core cor, Zval =  4.0
     Generated using 'atomic' code by A. Dal Corso  v.6.8
     Shape of augmentation charge: PSQ
     Using radial grid of 1073 points,  4 beta functions with: 
                l(1) =   0
                l(2) =   0
                l(3) =   1
                l(4) =   1
     Q(r) pseudized with 0 coefficients 


     atomic species   valence    mass     pseudopotential
        C              4.00    12.01100     C ( 1.00)

     24 Sym. Ops., with inversion, found (12 have fractional translation)



   Cartesian axes

     site n.     atom                  positions (alat units)
         1           C   tau(   1) = (   0.0000000   0.0000000   0.0000000  )
         2           C   tau(   2) = (   0.0000000   0.5773503   0.0000000  )
         3           C   tau(   3) = (   0.0000000   0.5773503   1.3586676  )
         4           C   tau(   4) = (   0.5000000   0.2886751   1.3586676  )

     number of k points=    54  Gaussian smearing, width (Ry)=  0.1000
                       cart. coord. in units 2pi/alat
        k(    1) = (   0.0000000   0.0000000   0.0000000), wk =   0.0029630
        k(    2) = (   0.0000000   0.0000000   0.1226692), wk =   0.0059259
        k(    3) = (   0.0000000   0.0769800   0.0000000), wk =   0.0177778
        k(    4) = (   0.0000000   0.0769800   0.1226692), wk =   0.0355556
        k(    5) = (   0.0000000   0.1539601   0.0000000), wk =   0.0177778
        k(    6) = (   0.0000000   0.1539601   0.1226692), wk =   0.0355556
        k(    7) = (   0.0000000   0.2309401   0.0000000), wk =   0.0177778
        k(    8) = (   0.0000000   0.2309401   0.1226692), wk =   0.0355556
        k(    9) = (   0.0000000   0.3079201   0.0000000), wk =   0.0177778
        k(   10) = (   0.0000000   0.3079201   0.1226692), wk =   0.0355556
        k(   11) = (   0.0000000   0.3849002   0.0000000), wk =   0.0177778
        k(   12) = (   0.0000000   0.3849002   0.1226692), wk =   0.0355556
        k(   13) = (   0.0000000   0.4618802   0.0000000), wk =   0.0177778
        k(   14) = (   0.0000000   0.4618802   0.1226692), wk =   0.0355556
        k(   15) = (   0.0000000   0.5388603   0.0000000), wk =   0.0177778
        k(   16) = (   0.0000000   0.5388603   0.1226692), wk =   0.0355556
        k(   17) = (   0.0666667   0.1154701   0.0000000), wk =   0.0177778
        k(   18) = (   0.0666667   0.1154701   0.1226692), wk =   0.0355556
        k(   19) = (   0.0666667   0.1924501   0.0000000), wk =   0.0355556
        k(   20) = (   0.0666667   0.1924501   0.1226692), wk =   0.0711111
        k(   21) = (   0.0666667   0.2694301   0.0000000), wk =   0.0355556
        k(   22) = (   0.0666667   0.2694301   0.1226692), wk =   0.0711111
        k(   23) = (   0.0666667   0.3464102   0.0000000), wk =   0.0355556
        k(   24) = (   0.0666667   0.3464102   0.1226692), wk =   0.0711111
        k(   25) = (   0.0666667   0.4233902   0.0000000), wk =   0.0355556
        k(   26) = (   0.0666667   0.4233902   0.1226692), wk =   0.0711111
        k(   27) = (   0.0666667   0.5003702   0.0000000), wk =   0.0355556
        k(   28) = (   0.0666667   0.5003702   0.1226692), wk =   0.0711111
        k(   29) = (   0.0666667   0.5773503   0.0000000), wk =   0.0177778
        k(   30) = (   0.0666667   0.5773503   0.1226692), wk =   0.0355556
        k(   31) = (   0.1333333   0.2309401   0.0000000), wk =   0.0177778
        k(   32) = (   0.1333333   0.2309401   0.1226692), wk =   0.0355556
        k(   33) = (   0.1333333   0.3079201   0.0000000), wk =   0.0355556
        k(   34) = (   0.1333333   0.3079201   0.1226692), wk =   0.0711111
        k(   35) = (   0.1333333   0.3849002   0.0000000), wk =   0.0355556
        k(   36) = (   0.1333333   0.3849002   0.1226692), wk =   0.0711111
        k(   37) = (   0.1333333   0.4618802   0.0000000), wk =   0.0355556
        k(   38) = (   0.1333333   0.4618802   0.1226692), wk =   0.0711111
        k(   39) = (   0.1333333   0.5388603   0.0000000), wk =   0.0355556
        k(   40) = (   0.1333333   0.5388603   0.1226692), wk =   0.0711111
        k(   41) = (   0.2000000   0.3464102   0.0000000), wk =   0.0177778
        k(   42) = (   0.2000000   0.3464102   0.1226692), wk =   0.0355556
        k(   43) = (   0.2000000   0.4233902   0.0000000), wk =   0.0355556
        k(   44) = (   0.2000000   0.4233902   0.1226692), wk =   0.0711111
        k(   45) = (   0.2000000   0.5003702   0.0000000), wk =   0.0355556
        k(   46) = (   0.2000000   0.5003702   0.1226692), wk =   0.0711111
        k(   47) = (   0.2000000   0.5773503   0.0000000), wk =   0.0177778
        k(   48) = (   0.2000000   0.5773503   0.1226692), wk =   0.0355556
        k(   49) = (   0.2666667   0.4618802   0.0000000), wk =   0.0177778
        k(   50) = (   0.2666667   0.4618802   0.1226692), wk =   0.0355556
        k(   51) = (   0.2666667   0.5388603   0.0000000), wk =   0.0355556
        k(   52) = (   0.2666667   0.5388603   0.1226692), wk =   0.0711111
        k(   53) = (   0.3333333   0.5773503   0.0000000), wk =   0.0059259
        k(   54) = (   0.3333333   0.5773503   0.1226692), wk =   0.0118519

     Dense  grid:    41301 G-vectors     FFT dimensions: (  36,  36,  90)

     Smooth grid:    14665 G-vectors     FFT dimensions: (  24,  24,  64)

     Estimated max dynamical RAM per process >       3.60 MB

     Estimated total dynamical RAM >      86.45 MB

     Check: negative core charge=   -0.000003

     Initial potential from superposition of free atoms

     starting charge   15.99986, renormalised to   16.00000
     Starting wfcs are   16 randomized atomic wfcs
     Checking if some PAW data can be deallocated... 

     total cpu time spent up to now is        0.4 secs

     Self-consistent Calculation

     iteration #  1     ecut=    60.00 Ry     beta= 0.70
     Davidson diagonalization with overlap
     ethr =  1.00E-02,  avg # of iterations =  3.0

     total cpu time spent up to now is        0.9 secs

     total energy              =     -71.23660290 Ry
     estimated scf accuracy    <       0.36856758 Ry

     iteration #  2     ecut=    60.00 Ry     beta= 0.70
     Davidson diagonalization with overlap
     ethr =  2.30E-03,  avg # of iterations =  2.6

     total cpu time spent up to now is        1.4 secs

     total energy              =     -71.27940862 Ry
     estimated scf accuracy    <       0.00474511 Ry

     iteration #  3     ecut=    60.00 Ry     beta= 0.70
     Davidson diagonalization with overlap
     c_bands:  1 eigenvalues not converged
     c_bands:  1 eigenvalues not converged
     c_bands:  1 eigenvalues not converged
     ethr =  2.97E-05,  avg # of iterations =  9.6

     total cpu time spent up to now is        2.6 secs

     total energy              =     -71.28162961 Ry
     estimated scf accuracy    <       0.00051753 Ry

     iteration #  4     ecut=    60.00 Ry     beta= 0.70
     Davidson diagonalization with overlap
     ethr =  3.23E-06,  avg # of iterations =  4.3

     total cpu time spent up to now is        3.3 secs

     total energy              =     -71.28173788 Ry
     estimated scf accuracy    <       0.00007386 Ry

     iteration #  5     ecut=    60.00 Ry     beta= 0.70
     Davidson diagonalization with overlap
     ethr =  4.62E-07,  avg # of iterations =  2.3

     total cpu time spent up to now is        3.8 secs

     total energy              =     -71.28175055 Ry
     estimated scf accuracy    <       0.00000094 Ry

     iteration #  6     ecut=    60.00 Ry     beta= 0.70
     Davidson diagonalization with overlap
     ethr =  5.89E-09,  avg # of iterations =  5.1

     total cpu time spent up to now is        4.6 secs

     total energy              =     -71.28175182 Ry
     estimated scf accuracy    <       0.00000072 Ry

     iteration #  7     ecut=    60.00 Ry     beta= 0.70
     Davidson diagonalization with overlap
     ethr =  4.51E-09,  avg # of iterations =  2.0

     total cpu time spent up to now is        5.0 secs

     total energy              =     -71.28175194 Ry
     estimated scf accuracy    <          3.4E-09 Ry

     iteration #  8     ecut=    60.00 Ry     beta= 0.70
     Davidson diagonalization with overlap
     ethr =  2.12E-11,  avg # of iterations =  5.4

     total cpu time spent up to now is        5.8 secs

     total energy              =     -71.28175194 Ry
     estimated scf accuracy    <          2.0E-09 Ry

     iteration #  9     ecut=    60.00 Ry     beta= 0.70
     Davidson diagonalization with overlap
     ethr =  1.25E-11,  avg # of iterations =  1.7

     total cpu time spent up to now is        6.2 secs

     total energy              =     -71.28175194 Ry
     estimated scf accuracy    <          3.6E-10 Ry

     iteration # 10     ecut=    60.00 Ry     beta= 0.70
     Davidson diagonalization with overlap
     ethr =  2.28E-12,  avg # of iterations =  2.5

     total cpu time spent up to now is        6.7 secs

     total energy              =     -71.28175194 Ry
     estimated scf accuracy    <          8.3E-12 Ry

     iteration # 11     ecut=    60.00 Ry     beta= 0.70
     Davidson diagonalization with overlap
     ethr =  1.00E-13,  avg # of iterations =  3.2

     total cpu time spent up to now is        7.2 secs

     End of self-consistent calculation

          k = 0.0000 0.0000 0.0000 (  1855 PWs)   bands (ev):

   -12.6411 -12.3013  -1.7930   0.3416   3.9880   3.9880   4.0077   4.0077
    10.8707  15.4221  15.4236  15.4789

          k = 0.0000 0.0000 0.1227 (  1813 PWs)   bands (ev):

   -12.5609 -12.3912  -1.3336  -0.2856   3.9929   3.9929   4.0028   4.0028
    12.2017  15.4359  15.4359  15.4642

          k = 0.0000 0.0770 0.0000 (  1838 PWs)   bands (ev):

   -12.5343 -12.1967  -1.6612   0.4644   3.5643   3.5953   3.7566   3.7840
    10.9996  15.4654  15.5437  15.8810

          k = 0.0000 0.0770 0.1227 (  1819 PWs)   bands (ev):

   -12.4545 -12.2860  -1.2037  -0.1599   3.5720   3.5875   3.7635   3.7772
    12.3237  15.2446  15.5248  15.5410

          k = 0.0000 0.1540 0.0000 (  1844 PWs)   bands (ev):

   -12.2145 -11.8836  -1.2679   0.8302   2.4363   2.4918   3.1749   3.2138
    11.3878  15.4743  15.6219  17.0107

          k = 0.0000 0.1540 0.1227 (  1830 PWs)   bands (ev):

   -12.1362 -11.9711  -0.8157   0.2149   2.4502   2.4779   3.1846   3.2040
    12.6900  15.3620  15.5857  15.7808

          k = 0.0000 0.2309 0.0000 (  1850 PWs)   bands (ev):

   -11.6840 -11.3643  -0.6185   0.8829   0.9682   1.4301   2.4513   2.4988
    12.0356  15.3277  15.4114  15.5723

          k = 0.0000 0.2309 0.1227 (  1831 PWs)   bands (ev):

   -11.6082 -11.4486  -0.1759   0.8289   0.9065   0.9468   2.4632   2.4869
    13.2901  15.2816  15.4547  15.5622

          k = 0.0000 0.3079 0.0000 (  1826 PWs)   bands (ev):

   -10.9469 -10.6424  -0.8619  -0.7451   0.2753   1.7495   1.8024   2.2443
    12.9372  13.4930  14.2496  15.0771

          k = 0.0000 0.3079 0.1227 (  1828 PWs)   bands (ev):

   -10.8745 -10.7224  -0.8334  -0.7749   0.7032   1.6726   1.7627   1.7891
    13.5538  14.0017  14.2515  15.1361

          k = 0.0000 0.3849 0.0000 (  1828 PWs)   bands (ev):

   -10.0101  -9.7248  -2.6454  -2.4973   1.1665   1.2230   1.3882   3.2266
    11.4894  12.4781  14.0663  14.8255

          k = 0.0000 0.3849 0.1227 (  1831 PWs)   bands (ev):

    -9.9420  -9.7995  -2.6093  -2.5352   1.1805   1.2088   1.7928   2.7003
    11.6777  12.1789  14.8482  14.9629

          k = 0.0000 0.4619 0.0000 (  1820 PWs)   bands (ev):

    -8.8866  -8.6247  -4.3691  -4.1920   0.7556   0.8141   2.6583   4.2442
     9.6663  10.7716  14.5866  14.9731

          k = 0.0000 0.4619 0.1227 (  1836 PWs)   bands (ev):

    -8.8238  -8.6930  -4.3261  -4.2376   0.7702   0.7994   3.0214   3.8106
     9.8601  10.4182  14.6942  14.8943

          k = 0.0000 0.5389 0.0000 (  1816 PWs)   bands (ev):

    -7.6265  -7.4057  -5.9218  -5.7356   0.5444   0.6038   3.8605   4.8507
     8.5440   9.4287  14.4872  14.9301

          k = 0.0000 0.5389 0.1227 (  1838 PWs)   bands (ev):

    -7.5726  -7.4621  -5.8781  -5.7850   0.5591   0.5888   4.1346   4.6434
     8.6078   9.0650  14.5932  14.8149

          k = 0.0667 0.1155 0.0000 (  1835 PWs)   bands (ev):

   -12.3210 -11.9879  -1.3987   0.7088   2.8502   2.8804   3.3040   3.3273
    11.2586  15.6223  15.7288  16.6070

          k = 0.0667 0.1155 0.1227 (  1828 PWs)   bands (ev):

   -12.2422 -12.0759  -0.9447   0.0904   2.8582   2.8733   3.3093   3.3210
    12.5687  15.3922  15.7078  15.7783

          k = 0.0667 0.1925 0.0000 (  1837 PWs)   bands (ev):

   -11.8959 -11.5717  -0.8771   1.1920   1.6001   1.6581   2.5558   2.5953
    11.7784  15.7460  15.9279  16.0736

          k = 0.0667 0.1925 0.1227 (  1831 PWs)   bands (ev):

   -11.8191 -11.6572  -0.4306   0.5863   1.6149   1.6438   2.5653   2.5851
    13.0578  15.6105  15.8554  16.0430

          k = 0.0667 0.2694 0.0000 (  1835 PWs)   bands (ev):

   -11.2621 -10.9511  -0.1047   0.0060   0.1006   1.7803   1.8346   1.9008
    12.5563  14.3581  14.9407  15.6269

          k = 0.0667 0.2694 0.1227 (  1830 PWs)   bands (ev):

   -11.1882 -11.0329   0.0292   0.0760   0.3306   1.3167   1.7937   1.8208
    13.7490  14.5281  14.7515  15.6477

          k = 0.0667 0.3464 0.0000 (  1833 PWs)   bands (ev):

   -10.4251 -10.1313  -1.7300  -1.6011   0.9015   1.1067   1.1691   2.8059
    12.4266  13.2473  13.5833  15.3876

          k = 0.0667 0.3464 0.1227 (  1832 PWs)   bands (ev):

   -10.3552 -10.2084  -1.6984  -1.6340   1.1221   1.1533   1.3176   2.2563
    12.5833  13.0062  14.7526  15.4567

          k = 0.0667 0.4234 0.0000 (  1826 PWs)   bands (ev):

    -9.3944  -9.1218  -3.4705  -3.3099   0.5955   0.6624   2.1039   3.8335
    10.5098  11.5275  14.8072  15.1801

          k = 0.0667 0.4234 0.1227 (  1830 PWs)   bands (ev):

    -9.3292  -9.1930  -3.4314  -3.3511   0.6120   0.6455   2.4897   3.3459
    10.7073  11.2215  15.2241  15.3801

          k = 0.0667 0.5004 0.0000 (  1827 PWs)   bands (ev):

    -8.1919  -7.9467  -5.1186  -4.9324   0.2784   0.3475   3.3933   4.7392
     8.9589   9.9668  14.9781  15.4192

          k = 0.0667 0.5004 0.1227 (  1837 PWs)   bands (ev):

    -8.1329  -8.0104  -5.0737  -4.9807   0.2955   0.3301   3.7197   4.3970
     9.1061   9.6208  15.0857  15.3066

          k = 0.0667 0.5774 0.0000 (  1834 PWs)   bands (ev):

    -7.1059  -6.9826  -6.2491  -6.1570   0.1711   0.2409   4.2279   4.9585
     8.4336   9.1208  14.9255  15.3894

          k = 0.0667 0.5774 0.1227 (  1838 PWs)   bands (ev):

    -7.0690  -7.0062  -6.2373  -6.1900   0.1884   0.2233   4.4611   4.8426
     8.4298   8.7901  15.0339  15.2661

          k = 0.1333 0.2309 0.0000 (  1835 PWs)   bands (ev):

   -11.3675 -11.0543  -0.2321   0.5214   0.5707   1.5771   1.6123   1.7853
    12.4307  14.7290  15.1780  16.3831

          k = 0.1333 0.2309 0.1227 (  1833 PWs)   bands (ev):

   -11.2931 -11.1368   0.2041   0.5340   0.5595   1.1973   1.5848   1.6026
    13.6688  14.8272  15.0507  16.1893

          k = 0.1333 0.3079 0.0000 (  1828 PWs)   bands (ev):

   -10.6339 -10.3359  -0.8869  -0.7984   0.6482   0.6555   0.7088   2.5912
    13.0887  13.3378  13.6617  16.6081

          k = 0.1333 0.3079 0.1227 (  1830 PWs)   bands (ev):

   -10.5630 -10.4142  -0.8647  -0.8205   0.6625   0.6928   1.0771   2.0306
    13.2167  13.5068  14.5203  16.5688

          k = 0.1333 0.3849 0.0000 (  1826 PWs)   bands (ev):

    -9.7028  -9.4239  -2.5070  -2.3741  -0.0370   0.0438   1.7615   3.5671
    11.2919  12.0650  14.4874  16.4522

          k = 0.1333 0.3849 0.1227 (  1823 PWs)   bands (ev):

    -9.6362  -9.4969  -2.4744  -2.4079  -0.0174   0.0231   2.1596   3.0513
    11.4625  11.8536  15.5465  16.5181

          k = 0.1333 0.4619 0.0000 (  1822 PWs)   bands (ev):

    -8.5887  -8.3333  -4.1495  -3.9825  -0.4864  -0.3966   3.0274   4.5928
     9.5829  10.4971  15.8419  16.2751

          k = 0.1333 0.4619 0.1227 (  1818 PWs)   bands (ev):

    -8.5273  -8.3998  -4.1089  -4.0254  -0.4644  -0.4195   3.3854   4.1642
     9.7617  10.2259  16.3428  16.4810

          k = 0.1333 0.5389 0.0000 (  1828 PWs)   bands (ev):

    -7.3454  -7.1314  -5.6567  -5.4789  -0.7105  -0.6174   4.2411   5.2306
     8.5068   9.1937  16.1368  16.6697

          k = 0.1333 0.5389 0.1227 (  1831 PWs)   bands (ev):

    -7.2930  -7.1860  -5.6150  -5.5260  -0.6876  -0.6411   4.5145   5.0235
     8.5510   8.9147  16.2488  16.5110

          k = 0.2000 0.3464 0.0000 (  1824 PWs)   bands (ev):

    -9.8062  -9.5252  -1.8683  -1.7992  -0.5464  -0.4944   1.6459   3.4753
    11.6564  12.2338  14.3656  17.7514

          k = 0.2000 0.3464 0.1227 (  1825 PWs)   bands (ev):

    -9.7391  -9.5987  -1.8502  -1.8156  -0.5355  -0.5094   2.0478   2.9507
    11.8017  12.0882  15.4159  17.4086

          k = 0.2000 0.4234 0.0000 (  1830 PWs)   bands (ev):

    -8.7905  -8.5307  -3.1840  -3.0634  -1.3864  -1.2975   2.8323   4.4943
    10.1084  10.7900  15.6180  17.9177

          k = 0.2000 0.4234 0.1227 (  1818 PWs)   bands (ev):

    -8.7282  -8.5984  -3.1539  -3.0936  -1.3657  -1.3212   3.2044   4.0276
    10.2735  10.6147  16.4215  17.6872

          k = 0.2000 0.5004 0.0000 (  1822 PWs)   bands (ev):

    -7.6135  -7.3814  -4.6590  -4.4950  -1.8151  -1.7035   4.1227   5.4509
     8.7124   9.4246  17.0488  17.7689

          k = 0.2000 0.5004 0.1227 (  1823 PWs)   bands (ev):

    -7.5575  -7.4415  -4.6192  -4.5372  -1.7882  -1.7324   4.4419   5.1092
     8.8472   9.2116  17.2758  17.6332

          k = 0.2000 0.5774 0.0000 (  1820 PWs)   bands (ev):

    -6.5696  -6.4528  -5.7152  -5.6371  -1.9473  -1.8304   5.0033   5.7124
     8.3276   8.4872  17.6908  18.4643

          k = 0.2000 0.5774 0.1227 (  1834 PWs)   bands (ev):

    -6.5350  -6.4757  -5.7054  -5.6654  -1.9189  -1.8605   5.2375   5.6109
     8.2365   8.3446  17.5681  17.5729

          k = 0.2667 0.4619 0.0000 (  1816 PWs)   bands (ev):

    -7.7084  -7.4727  -3.9184  -3.8302  -2.5404  -2.4750   4.0683   5.5176
     8.8511   9.5236  16.9273  18.4446

          k = 0.2667 0.4619 0.1227 (  1811 PWs)   bands (ev):

    -7.6516  -7.5338  -3.8950  -3.8508  -2.5276  -2.4948   4.4027   5.1244
     9.0186   9.3508  17.0545  17.5977

          k = 0.2667 0.5389 0.0000 (  1819 PWs)   bands (ev):

    -6.5199  -6.3254  -5.0143  -4.8817  -3.1042  -2.9967   5.3238   6.3265
     7.8052   8.3861  18.1320  18.2944

          k = 0.2667 0.5389 0.1227 (  1820 PWs)   bands (ev):

    -6.4721  -6.3748  -4.9822  -4.9158  -3.0798  -3.0259   5.5976   6.1153
     7.8987   8.1859  17.1586  17.3100

          k = 0.3333 0.5774 0.0000 (  1806 PWs)   bands (ev):

    -5.5501  -5.4442  -5.4442  -5.3393  -3.7383  -3.7383   6.2871   6.9405
     6.9405   7.7438  17.8520  17.8520

          k = 0.3333 0.5774 0.1227 (  1815 PWs)   bands (ev):

    -5.4992  -5.4417  -5.4417  -5.3938  -3.7433  -3.7433   6.6139   6.9708
     6.9708   7.3359  17.0107  17.0107

     the Fermi energy is     6.9209 ev

!    total energy              =     -71.28175194 Ry

     total all-electron energy =      -302.500078 Ry
     estimated scf accuracy    <          3.0E-13 Ry
     smearing contrib. (-TS)   =      -0.01584938 Ry
     internal energy E=F+TS    =     -71.26590256 Ry

     The total energy is F=E-TS. E is the sum of the following terms:
     one-electron contribution =      -9.60341523 Ry
     hartree contribution      =      13.30011639 Ry
     xc contribution           =     -18.45074062 Ry
     ewald contribution        =     -34.17807614 Ry
     one-center paw contrib.   =     -22.33378696 Ry

     convergence has been achieved in  11 iterations

     Writing output data file ./tmp/graphite.save/
 
     init_run     :      0.20s CPU      0.28s WALL (       1 calls)
     electrons    :      5.16s CPU      6.91s WALL (       1 calls)

     Called by init_run:
     wfcinit      :      0.15s CPU      0.21s WALL (       1 calls)
     potinit      :      0.02s CPU      0.02s WALL (       1 calls)
     hinit0       :      0.02s CPU      0.03s WALL (       1 calls)

     Called by electrons:
     c_bands      :      4.81s CPU      6.45s WALL (      11 calls)
     sum_band     :      0.29s CPU      0.38s WALL (      11 calls)
     v_of_rho     :      0.00s CPU      0.01s WALL (      12 calls)
     newd         :      0.01s CPU      0.02s WALL (      12 calls)
     PAW_pot      :      0.03s CPU      0.03s WALL (      12 calls)
     mix_rho      :      0.00s CPU      0.00s WALL (      11 calls)

     Called by c_bands:
     init_us_2    :      0.02s CPU      0.02s WALL (    1242 calls)
     cegterg      :      4.76s CPU      6.38s WALL (     594 calls)

     Called by *egterg:
     cdiaghg      :      2.38s CPU      3.46s WALL (    2846 calls)
     h_psi        :      1.55s CPU      1.93s WALL (    2900 calls)
     s_psi        :      0.02s CPU      0.02s WALL (    2900 calls)
     g_psi        :      0.00s CPU      0.01s WALL (    2252 calls)

     Called by h_psi:
     h_psi:calbec :      0.06s CPU      0.08s WALL (    2900 calls)
     vloc_psi     :      1.45s CPU      1.79s WALL (    2900 calls)
     add_vuspsi   :      0.02s CPU      0.03s WALL (    2900 calls)

     General routines
     calbec       :      0.07s CPU      0.09s WALL (    3494 calls)
     fft          :      0.01s CPU      0.02s WALL (      70 calls)
     ffts         :      0.00s CPU      0.00s WALL (      23 calls)
     fftw         :      1.56s CPU      1.95s WALL (   52804 calls)
     interpolate  :      0.00s CPU      0.00s WALL (      12 calls)
 
     Parallel routines
 
     PWSCF        :      5.50s CPU      7.77s WALL

 
   This run was terminated on:  17:55:34   6Nov2021            

=------------------------------------------------------------------------------=
   JOB DONE.
=------------------------------------------------------------------------------=
